********************************************************************************
*                       GENERAL UTILITY LATTICE PROGRAM                        *
*                                 Julian Gale                                  *
*                       Curtin Institute for Computation                       *
*                    School of Molecular and Life Sciences                     *
*                    Curtin University, Western Australia                      *
********************************************************************************
* Version = 5.2.0 * Last modified =  18th May 2020                             *
********************************************************************************
*  optimise     - perform optimisation run                                     *
*  conp         - constant pressure calculation                                *
*  property     - calculate properties for final geometry                      *
*  defect       - perform defect calculation after bulk run                    *
********************************************************************************

  Job Started  at 17:48.28  1st July       2020                               

  Number of CPUs =     1


  Total number of configurations input =      1

********************************************************************************
*  Input for Configuration =   1                                               *
********************************************************************************

  Formula = Mg4O4                                                       

  Number of irreducible atoms/shells =       8


  Total number atoms/shells =       8

  Dimensionality = 3               :  Bulk   



  Cartesian lattice vectors (Angstroms) :

        4.212000    0.000000    0.000000
        0.000000    4.212000    0.000000
        0.000000    0.000000    4.212000

  Cell parameters (Angstroms/Degrees):

  a =       4.2120    alpha =  90.0000
  b =       4.2120    beta  =  90.0000
  c =       4.2120    gamma =  90.0000

  Initial cell volume =          74.724856 Angs**3

  Temperature of configuration =   0.00     K 

  Pressure of configuration =         0.000 GPa 

  Fractional coordinates of asymmetric unit :

--------------------------------------------------------------------------------
   No.  Atomic       x           y          z         Charge      Occupancy
        Label      (Frac)      (Frac)     (Frac)        (e)         (Frac)  
--------------------------------------------------------------------------------
      1 Mg    c    0.000000    0.000000    0.000000     2.00000    1.000000    
      2 Mg    c    0.000000 *  0.500000 *  0.500000 *   2.00000    1.000000    
      3 Mg1   c    0.500000 *  0.000000 *  0.500000 *   2.00000    1.000000    
      4 Mg    c    0.500000 *  0.500000 *  0.000000 *   2.00000    1.000000    
      5 O     c    0.500000 *  0.500000 *  0.500000 *  -2.00000    1.000000    
      6 O     c    0.500000 *  0.000000 *  0.000000 *  -2.00000    1.000000    
      7 O     c    0.000000 *  0.500000 *  0.000000 *  -2.00000    1.000000    
      8 O     c    0.000000 *  0.000000 *  0.500000 *  -2.00000    1.000000    
--------------------------------------------------------------------------------



********************************************************************************
*  General input information                                                   *
********************************************************************************

  Species output for all configurations : 

--------------------------------------------------------------------------------
  Species    Type    Atomic    Atomic    Charge       Radii (Angs)     Library
                     Number     Mass       (e)     Cova   Ionic  VDW   Symbol
--------------------------------------------------------------------------------
    Mg       Core       12      24.31   2.000000   1.100  0.000  1.640          
    O        Core        8      16.00  -2.000000   0.730  0.000  1.360          
    Li       Core        3       6.94   1.000000   0.680  0.000  0.000          
--------------------------------------------------------------------------------


  Lattice summation method               =    Ewald          (3-D)
                                         =    Parry          (2-D)
                                         =    Saunders et al (1-D)
  Accuracy factor for lattice sums       =   12.000


  Analytic derivatives to be used

  Time limit = Infinity

********************************************************************************
*  Output for configuration   1                                                *
********************************************************************************


  Components of energy : 

--------------------------------------------------------------------------------
  Interatomic potentials     =           0.00000000 eV    
  Monopole - monopole (real) =         -61.55806110 eV    
  Monopole - monopole (recip)=        -129.62528516 eV    
  Monopole - monopole (total)=        -191.18334626 eV    
--------------------------------------------------------------------------------
  Total lattice energy       =        -191.18334626 eV    
--------------------------------------------------------------------------------
  Total lattice energy       =          -18446.2704 kJ/(mole unit cells)
--------------------------------------------------------------------------------


  Number of variables =       27

  Maximum number of calculations  =          1000
  Maximum Hessian update interval =            10
  Maximum step size               =   1.000000000
  Maximum parameter tolerance     =   0.000010000
  Maximum function  tolerance     =   0.000010000
  Maximum gradient  tolerance     =   0.001000000
  Maximum gradient  component     =   0.010000000

  Symmetry not applied to optimisation

  Cell parameters to be optimised using strains

  Newton-Raphson optimiser to be used

  BFGS hessian update to be used

  Lower half triangular hessian to be used

  Start of bulk optimisation :

  Cycle:      0 Energy:      -191.183346  Gnorm:      4.088139  CPU:    0.016
  ** Hessian calculated **


!!!!!!!!!!!!!!!!!!!!!!!!!!!!!!!!!!!!!!!!!!!!!!!!!!!!!!!!!!!!!!!!!!!!!!!!!!!!!!!!
!! ERROR : Cell parameter has fallen below allowed limit
!!!!!!!!!!!!!!!!!!!!!!!!!!!!!!!!!!!!!!!!!!!!!!!!!!!!!!!!!!!!!!!!!!!!!!!!!!!!!!!!

  Cycle:      1 Energy:      -834.985794  Gnorm:     17.854788  CPU:    0.016
  ** Hessian calculated **


!!!!!!!!!!!!!!!!!!!!!!!!!!!!!!!!!!!!!!!!!!!!!!!!!!!!!!!!!!!!!!!!!!!!!!!!!!!!!!!!
!! ERROR : Cell parameter has fallen below allowed limit
!!!!!!!!!!!!!!!!!!!!!!!!!!!!!!!!!!!!!!!!!!!!!!!!!!!!!!!!!!!!!!!!!!!!!!!!!!!!!!!!

  Cycle:      2 Energy:     -1072.387917  Gnorm:     22.931239  CPU:    0.031
  ** Hessian calculated **


!!!!!!!!!!!!!!!!!!!!!!!!!!!!!!!!!!!!!!!!!!!!!!!!!!!!!!!!!!!!!!!!!!!!!!!!!!!!!!!!
!! ERROR : Cell parameter has fallen below allowed limit
!!!!!!!!!!!!!!!!!!!!!!!!!!!!!!!!!!!!!!!!!!!!!!!!!!!!!!!!!!!!!!!!!!!!!!!!!!!!!!!!

  Cycle:      3 Energy:     -1377.287916  Gnorm:     29.451020  CPU:    0.031
  ** Hessian calculated **


!!!!!!!!!!!!!!!!!!!!!!!!!!!!!!!!!!!!!!!!!!!!!!!!!!!!!!!!!!!!!!!!!!!!!!!!!!!!!!!!
!! ERROR : Cell parameter has fallen below allowed limit
!!!!!!!!!!!!!!!!!!!!!!!!!!!!!!!!!!!!!!!!!!!!!!!!!!!!!!!!!!!!!!!!!!!!!!!!!!!!!!!!

  Cycle:      4 Energy:     -1487.018531  Gnorm:     31.797428  CPU:    0.031
  ** Hessian calculated **


!!!!!!!!!!!!!!!!!!!!!!!!!!!!!!!!!!!!!!!!!!!!!!!!!!!!!!!!!!!!!!!!!!!!!!!!!!!!!!!!
!! ERROR : Cell parameter has fallen below allowed limit
!!!!!!!!!!!!!!!!!!!!!!!!!!!!!!!!!!!!!!!!!!!!!!!!!!!!!!!!!!!!!!!!!!!!!!!!!!!!!!!!

  Cycle:      5 Energy:     -1605.491550  Gnorm:     34.330777  CPU:    0.031
  ** Hessian calculated **


!!!!!!!!!!!!!!!!!!!!!!!!!!!!!!!!!!!!!!!!!!!!!!!!!!!!!!!!!!!!!!!!!!!!!!!!!!!!!!!!
!! ERROR : Cell parameter has fallen below allowed limit
!!!!!!!!!!!!!!!!!!!!!!!!!!!!!!!!!!!!!!!!!!!!!!!!!!!!!!!!!!!!!!!!!!!!!!!!!!!!!!!!



!!!!!!!!!!!!!!!!!!!!!!!!!!!!!!!!!!!!!!!!!!!!!!!!!!!!!!!!!!!!!!!!!!!!!!!!!!!!!!!!
!! ERROR : Cell parameter has fallen below allowed limit
!!!!!!!!!!!!!!!!!!!!!!!!!!!!!!!!!!!!!!!!!!!!!!!!!!!!!!!!!!!!!!!!!!!!!!!!!!!!!!!!

  Cycle:      6 Energy:     -1603.642691  Gnorm:     34.291242  CPU:    0.047
  ** Hessian calculated **


!!!!!!!!!!!!!!!!!!!!!!!!!!!!!!!!!!!!!!!!!!!!!!!!!!!!!!!!!!!!!!!!!!!!!!!!!!!!!!!!
!! ERROR : Cell parameter has fallen below allowed limit
!!!!!!!!!!!!!!!!!!!!!!!!!!!!!!!!!!!!!!!!!!!!!!!!!!!!!!!!!!!!!!!!!!!!!!!!!!!!!!!!



!!!!!!!!!!!!!!!!!!!!!!!!!!!!!!!!!!!!!!!!!!!!!!!!!!!!!!!!!!!!!!!!!!!!!!!!!!!!!!!!
!! ERROR : Cell parameter has fallen below allowed limit
!!!!!!!!!!!!!!!!!!!!!!!!!!!!!!!!!!!!!!!!!!!!!!!!!!!!!!!!!!!!!!!!!!!!!!!!!!!!!!!!



  **** Conditions for a minimum have not been satisfied. However ****
  **** no lower point can be found - treat results with caution  ****
  **** unless gradient norm is small (less than 0.1)             ****


  Final energy =   -1601.79596032 eV
  Final Gnorm  =      34.25175292

  Components of energy : 

--------------------------------------------------------------------------------
  Interatomic potentials     =           0.00000000 eV    
  Monopole - monopole (real) =        -515.75336202 eV    
  Monopole - monopole (recip)=       -1086.04259830 eV    
  Monopole - monopole (total)=       -1601.79596032 eV    
--------------------------------------------------------------------------------
  Total lattice energy       =       -1601.79596032 eV    
--------------------------------------------------------------------------------
  Total lattice energy       =         -154548.8245 kJ/(mole unit cells)
--------------------------------------------------------------------------------

  Final fractional coordinates of atoms :

--------------------------------------------------------------------------------
   No.  Atomic        x           y          z          Radius
        Label       (Frac)      (Frac)     (Frac)       (Angs) 
--------------------------------------------------------------------------------
     1  Mg    c     0.000000    0.000000    0.000000    0.000000
     2  Mg    c     1.000000    0.500000    0.500000    0.000000
     3  Mg1   c     0.500000    1.000000    0.500000    0.000000
     4  Mg    c     0.500000    0.500000    1.000000    0.000000
     5  O     c     0.500000    0.500000    0.500000    0.000000
     6  O     c     0.500000    1.000000    0.000000    0.000000
     7  O     c     1.000000    0.500000    0.000000    0.000000
     8  O     c     1.000000    0.000000    0.500000    0.000000
--------------------------------------------------------------------------------

  Final Cartesian lattice vectors (Angstroms) :

        0.502726   -0.000000    0.000000
       -0.000000    0.502726   -0.000000
        0.000000   -0.000000    0.502726


  Final cell parameters and derivatives :

--------------------------------------------------------------------------------
       a            0.502726 Angstrom     dE/de1(xx)   533.931987 eV/strain
       b            0.502726 Angstrom     dE/de2(yy)   533.931987 eV/strain
       c            0.502726 Angstrom     dE/de3(zz)   533.931987 eV/strain
       alpha       90.000000 Degrees      dE/de4(yz)    -0.000000 eV/strain
       beta        90.000000 Degrees      dE/de5(xz)     0.000000 eV/strain
       gamma       90.000000 Degrees      dE/de6(xy)    -0.000000 eV/strain
--------------------------------------------------------------------------------

  Primitive cell volume =             0.127056 Angs**3

  Density of cell =   2107.342430 g/cm**3

  Non-primitive cell volume =             0.127056 Angs**3


  Final internal derivatives :

--------------------------------------------------------------------------------
   No.  Atomic          a             b             c           Radius
        Label          (eV)          (eV)          (eV)        (eV/Angs)
--------------------------------------------------------------------------------
      1 Mg    c       0.000000      0.000000      0.000000      0.000000
      2 Mg    c       0.000000      0.000000      0.000000      0.000000
      3 Mg1   c      -0.000000     -0.000000     -0.000000      0.000000
      4 Mg    c      -0.000000      0.000000      0.000000      0.000000
      5 O     c      -0.000000      0.000000     -0.000000      0.000000
      6 O     c      -0.000000     -0.000000      0.000000      0.000000
      7 O     c       0.000000     -0.000000      0.000000      0.000000
      8 O     c       0.000000      0.000000     -0.000000      0.000000
--------------------------------------------------------------------------------
  Maximum abs         0.000000      0.000000      0.000000      0.000000
--------------------------------------------------------------------------------


  Born effective charge tensors : 

-------------------------------------------------------------------------------
  Atom             x           y             z
-------------------------------------------------------------------------------
    1 Mg    x       2.0000      0.0000      0.0000
            y       0.0000      2.0000      0.0000
            z       0.0000      0.0000      2.0000
-------------------------------------------------------------------------------
    2 Mg    x       2.0000      0.0000      0.0000
            y       0.0000      2.0000      0.0000
            z       0.0000      0.0000      2.0000
-------------------------------------------------------------------------------
    3 Mg1   x       2.0000      0.0000      0.0000
            y       0.0000      2.0000      0.0000
            z       0.0000      0.0000      2.0000
-------------------------------------------------------------------------------
    4 Mg    x       2.0000      0.0000      0.0000
            y       0.0000      2.0000      0.0000
            z       0.0000      0.0000      2.0000
-------------------------------------------------------------------------------
    5 O     x      -2.0000      0.0000      0.0000
            y       0.0000     -2.0000      0.0000
            z       0.0000      0.0000     -2.0000
-------------------------------------------------------------------------------
    6 O     x      -2.0000      0.0000      0.0000
            y       0.0000     -2.0000      0.0000
            z       0.0000      0.0000     -2.0000
-------------------------------------------------------------------------------
    7 O     x      -2.0000      0.0000      0.0000
            y       0.0000     -2.0000      0.0000
            z       0.0000      0.0000     -2.0000
-------------------------------------------------------------------------------
    8 O     x      -2.0000      0.0000      0.0000
            y       0.0000     -2.0000      0.0000
            z       0.0000      0.0000     -2.0000
-------------------------------------------------------------------------------




  Elastic Constant Matrix: (Units=GPa)

-------------------------------------------------------------------------------
  Indices      1         2         3         4         5         6    
-------------------------------------------------------------------------------
       1  ******************************   -0.0000   -0.0000    0.0000
       2  ******************************    0.0000    0.0000    0.0000
       3  ******************************    0.0000   -0.0000   -0.0000
       4     -0.0000    0.0000    0.0000**********   -0.0000    0.0000
       5     -0.0000    0.0000   -0.0000   -0.0000**********   -0.0000
       6      0.0000    0.0000   -0.0000    0.0000   -0.0000**********
-------------------------------------------------------------------------------


  Elastic Compliance Matrix: (Units=1/GPa)

-------------------------------------------------------------------------------
  Indices      1         2         3         4         5         6    
-------------------------------------------------------------------------------
       1   -0.000001 -0.000000 -0.000000  0.000000 -0.000000  0.000000
       2   -0.000000 -0.000001 -0.000000  0.000000  0.000000  0.000000
       3   -0.000000 -0.000000 -0.000001  0.000000 -0.000000 -0.000000
       4    0.000000  0.000000  0.000000  0.000001  0.000000 -0.000000
       5   -0.000000  0.000000 -0.000000  0.000000  0.000001  0.000000
       6    0.000000  0.000000 -0.000000 -0.000000  0.000000  0.000001
-------------------------------------------------------------------------------

  Mechanical properties :

-------------------------------------------------------------------------------
  Convention :                    Reuss         Voigt         Hill
-------------------------------------------------------------------------------
  Bulk  Modulus (GPa)     = -224432.36216 -224432.36216 -224432.36216
  Shear Modulus (GPa)     = 6809409.23612  269318.83473 3539364.03542
-------------------------------------------------------------------------------
  Velocity S-wave (km/s)  =      56.84433      11.30488      40.98218
  Velocity P-wave (km/s)  =      64.82184       7.99375      46.18317
-------------------------------------------------------------------------------
  Compressibility (1/GPa) =   -0.00000446
-------------------------------------------------------------------------------
  Stress axis :                     x             y             z
-------------------------------------------------------------------------------
  Youngs Moduli (GPa)     = ************* ************* *************
-------------------------------------------------------------------------------
  Poissons Ratio (x)      =                    -0.54420      -0.54420
  Poissons Ratio (y)      =      -0.54420                    -0.54420
  Poissons Ratio (z)      =      -0.54420      -0.54420
-------------------------------------------------------------------------------


  Piezoelectric Strain Matrix: (Units=C/m**2)

-------------------------------------------------------------------------------
  Indices      1         2         3         4         5         6    
-------------------------------------------------------------------------------
       x     0.00000   0.00000   0.00000   0.00000   0.00000   0.00000
       y    -0.00000  -0.00000  -0.00000   0.00000   0.00000  -0.00000
       z     0.00000   0.00000  -0.00000  -0.00000  -0.00000   0.00000
-------------------------------------------------------------------------------


  Piezoelectric Stress Matrix: (Units=10**-11 C/N)

-------------------------------------------------------------------------------
  Indices      1         2         3         4         5         6    
-------------------------------------------------------------------------------
       x    -0.00000  -0.00000  -0.00000   0.00000   0.00000   0.00000
       y     0.00000   0.00000   0.00000   0.00000   0.00000  -0.00000
       z     0.00000   0.00000   0.00000  -0.00000  -0.00000   0.00000
-------------------------------------------------------------------------------


  Static dielectric constant tensor : 

-------------------------------------------------------------------------------
              x         y         z
-------------------------------------------------------------------------------
       x    -2.00000  -0.00000   0.00000
       y    -0.00000  -2.00000  -0.00000
       z     0.00000  -0.00000  -2.00000
--------------------------------------------------------------------------------

  Static refractive indices : 

-------------------------------------------------------------------------------
    1 =   -1.41421      2 =   -1.41421      3 =   -1.41421
-------------------------------------------------------------------------------


  Time to end of optimisation =       0.0625 seconds

********************************************************************************
*  Defect calculation for configuration   1 :                                  *
********************************************************************************

  Total number of defects =      1

  Total charge on defect  =  -1.00

  Defect centre is at   0.5000   0.0000   0.5000  Frac

  Region 1 radius =   6.0000      Number of ions =  57051

  Number of symmetry inequivalent region 1 ions  =   1476

  Region 2 radius =  12.0000      Number of ions = 398812

  Number of symmetry inequivalent region 2a ions =   9137

  Region 2a mode = 4 : screened electrostatics due to region 1 
                       neglect correction to region 1 forces from 2a
                       region 2a displacements based on defects only

  Region 2a ions will only interact with defects in region 1

  Impurities:

--------------------------------------------------------------------------------
    Specification type     Symbol/Number         x          y          z
--------------------------------------------------------------------------------
    Frac/Symbol             Li               0.500000   0.000000   0.500000
--------------------------------------------------------------------------------


  Symmetry reduced region 1 (Relative to defect centre) :

--------------------------------------------------------------------------------
   No.   Atomic       x            y             z       Radius  Multiplicity   
         Label      (Angs)       (Angs)        (Angs)    (Angs)     
--------------------------------------------------------------------------------
     1  Li    c      0.0000       0.0000       0.0000    0.0000     1    Defect
     2  O     c      0.0000      -0.0000      -0.2514 *  0.0000     6          
     3  Mg    c      0.0000      -0.2514 *     0.2514    0.0000    12          
     4  O     c      0.2514 *    -0.2514       0.2514    0.0000     8          
     5  Mg1   c      0.0000      -0.0000       0.5027 *  0.0000     6          
     6  O     c      0.0000      -0.2514 *     0.5027 *  0.0000    24          
     7  Mg    c      0.2514 *    -0.2514       0.5027 *  0.0000    24          
     8  Mg1   c      0.0000       0.5027 *     0.5027    0.0000    12          
     9  O     c      0.0000      -0.0000       0.7541 *  0.0000     6          
    10  O     c      0.2514 *     0.5027 *     0.5027    0.0000    24          
    11  Mg    c      0.0000      -0.2514 *     0.7541 *  0.0000    24          
    12  O     c      0.2514 *    -0.2514       0.7541 *  0.0000    24          
    13  Mg1   c     -0.5027 *     0.5027       0.5027    0.0000     8          
    14  O     c      0.0000       0.5027 *     0.7541 *  0.0000    24          
    15  Mg    c      0.2514 *     0.5027 *     0.7541 *  0.0000    48          
    16  Mg1   c      0.0000      -0.0000       1.0055 *  0.0000     6          
    17  O     c      0.0000      -0.2514 *     1.0055 *  0.0000    24          
    18  O     c     -0.5027 *     0.5027       0.7541 *  0.0000    24          
    19  Mg    c      0.0000       0.7541 *     0.7541    0.0000    12          
    20  Mg    c      0.2514 *    -0.2514       1.0055 *  0.0000    24          
    21  O     c      0.2514 *    -0.7541 *     0.7541    0.0000    24          
    22  Mg1   c      0.0000       0.5027 *     1.0055 *  0.0000    24          
    23  O     c      0.2514 *     0.5027 *     1.0055 *  0.0000    48          
    24  Mg    c     -0.5027 *     0.7541 *     0.7541    0.0000    24          
    25  Mg1   c     -0.5027 *     0.5027       1.0055 *  0.0000    24          
    26  O     c      0.0000      -0.0000       1.2568 *  0.0000     6          
    27  O     c      0.0000       0.7541 *     1.0055 *  0.0000    24          
    28  Mg    c      0.0000      -0.2514 *     1.2568 *  0.0000    24          
    29  Mg    c      0.2514 *     0.7541 *     1.0055 *  0.0000    48          
    30  O     c      0.2514 *    -0.2514       1.2568 *  0.0000    24          
    31  O     c      0.7541 *    -0.7541       0.7541    0.0000     8          
    32  O     c      0.0000       0.5027 *     1.2568 *  0.0000    24          
    33  O     c     -0.5027 *     0.7541 *     1.0055 *  0.0000    48          
    34  Mg    c      0.2514 *     0.5027 *     1.2568 *  0.0000    48          
    35  Mg1   c      0.0000       1.0055 *     1.0055    0.0000    12          
    36  O     c      0.2514 *     1.0055 *     1.0055    0.0000    24          
    37  O     c     -0.5027 *     0.5027       1.2568 *  0.0000    24          
    38  Mg    c      0.0000       0.7541 *     1.2568 *  0.0000    24          
    39  Mg    c      0.7541 *     0.7541       1.0055 *  0.0000    24          
    40  O     c      0.2514 *    -0.7541 *     1.2568 *  0.0000    48          
    41  Mg1   c      0.0000      -0.0000       1.5082 *  0.0000     6          
    42  Mg1   c     -0.5027 *     1.0055 *     1.0055    0.0000    24          
    43  O     c      0.0000      -0.2514 *     1.5082 *  0.0000    24          
    44  Mg    c      0.2514 *    -0.2514       1.5082 *  0.0000    24          
    45  Mg    c     -0.5027 *     0.7541 *     1.2568 *  0.0000    48          
    46  Mg1   c      0.0000       0.5027 *     1.5082 *  0.0000    24          
    47  O     c      0.0000       1.0055 *     1.2568 *  0.0000    24          
    48  O     c      0.2514 *     0.5027 *     1.5082 *  0.0000    48          
    49  O     c      0.7541 *     1.0055 *     1.0055    0.0000    24          
    50  Mg    c      0.2514 *     1.0055 *     1.2568 *  0.0000    48          
    51  O     c      0.7541 *    -0.7541       1.2568 *  0.0000    24          
    52  Mg1   c     -0.5027 *     0.5027       1.5082 *  0.0000    24          
    53  O     c      0.0000       0.7541 *     1.5082 *  0.0000    24          
    54  O     c     -0.5027 *     1.0055 *     1.2568 *  0.0000    48          
    55  Mg    c      0.2514 *     0.7541 *     1.5082 *  0.0000    48          
    56  Mg1   c     -1.0055 *     1.0055       1.0055    0.0000     8          
    57  O     c      0.0000      -0.0000       1.7595 *  0.0000     6          
    58  O     c     -0.5027 *     0.7541 *     1.5082 *  0.0000    48          
    59  Mg    c      0.0000      -0.2514 *     1.7595 *  0.0000    24          
    60  Mg    c      0.0000       1.2568 *     1.2568    0.0000    12          
    61  Mg    c      0.7541 *     1.0055 *     1.2568 *  0.0000    48          
    62  O     c      0.2514 *    -0.2514       1.7595 *  0.0000    24          
    63  O     c      0.2514 *    -1.2568 *     1.2568    0.0000    24          
    64  Mg1   c      0.0000       1.0055 *     1.5082 *  0.0000    24          
    65  O     c      0.0000       0.5027 *     1.7595 *  0.0000    24          
    66  O     c      0.2514 *     1.0055 *     1.5082 *  0.0000    48          
    67  Mg    c      0.2514 *     0.5027 *     1.7595 *  0.0000    48          
    68  Mg    c     -0.5027 *     1.2568 *     1.2568    0.0000    24          
    69  Mg    c      0.7541 *     0.7541       1.5082 *  0.0000    24          
    70  Mg1   c     -0.5027 *     1.0055 *     1.5082 *  0.0000    48          
    71  O     c     -0.5027 *     0.5027       1.7595 *  0.0000    24          
    72  O     c     -1.0055 *     1.0055       1.2568 *  0.0000    24          
    73  Mg    c      0.0000       0.7541 *     1.7595 *  0.0000    24          
    74  O     c      0.2514 *    -0.7541 *     1.7595 *  0.0000    48          
    75  O     c      0.7541 *    -1.2568 *     1.2568    0.0000    24          
    76  O     c      0.0000       1.2568 *     1.5082 *  0.0000    24          
    77  O     c      0.7541 *     1.0055 *     1.5082 *  0.0000    48          
    78  Mg    c      0.2514 *     1.2568 *     1.5082 *  0.0000    48          
    79  Mg    c     -0.5027 *     0.7541 *     1.7595 *  0.0000    48          
    80  Mg1   c      0.0000      -0.0000       2.0109 *  0.0000     6          
    81  O     c      0.0000      -0.2514 *     2.0109 *  0.0000    24          
    82  O     c      0.0000       1.0055 *     1.7595 *  0.0000    24          
    83  O     c     -0.5027 *     1.2568 *     1.5082 *  0.0000    48          
    84  Mg    c      0.2514 *    -0.2514       2.0109 *  0.0000    24          
    85  Mg    c      0.2514 *     1.0055 *     1.7595 *  0.0000    48          
    86  Mg    c     -1.0055 *     1.2568 *     1.2568    0.0000    24          
    87  O     c      0.7541 *    -0.7541       1.7595 *  0.0000    24          
    88  Mg1   c      0.0000       0.5027 *     2.0109 *  0.0000    24          
    89  Mg1   c     -1.0055 *     1.0055       1.5082 *  0.0000    24          
    90  O     c      0.2514 *     0.5027 *     2.0109 *  0.0000    48          
    91  O     c      0.5027 *     1.0055 *     1.7595 *  0.0000    48          
    92  Mg    c      0.7541 *     1.2568 *     1.5082 *  0.0000    48          
    93  Mg1   c      0.0000       1.5082 *     1.5082    0.0000    12          
    94  Mg1   c     -0.5027 *     0.5027       2.0109 *  0.0000    24          
    95  O     c      0.0000       0.7541 *     2.0109 *  0.0000    24          
    96  O     c     -0.2514 *     1.5082 *     1.5082    0.0000    24          
    97  Mg    c      0.0000       1.2568 *     1.7595 *  0.0000    24          
    98  Mg    c     -0.2514 *     0.7541 *     2.0109 *  0.0000    48          
    99  Mg    c      0.7541 *     1.0055 *     1.7595 *  0.0000    48          
   100  O     c     -0.2514 *    -1.2568 *     1.7595 *  0.0000    48          
   101  O     c      1.2568 *    -1.2568       1.2568    0.0000     8          
   102  Mg1   c      0.5027 *     1.5082 *     1.5082    0.0000    24          
   103  O     c     -0.5027 *     0.7541 *     2.0109 *  0.0000    48          
   104  O     c     -1.0055 *     1.2568 *     1.5082 *  0.0000    48          
   105  Mg    c     -0.5027 *     1.2568 *     1.7595 *  0.0000    48          
   106  Mg1   c      0.0000       1.0055 *     2.0109 *  0.0000    24          
   107  O     c      0.0000      -0.0000       2.2623 *  0.0000     6          
   108  O     c      0.2514 *     1.0055 *     2.0109 *  0.0000    48          
   109  O     c      0.7541 *     1.5082 *     1.5082    0.0000    24          
   110  O     c     -1.0055 *     1.0055       1.7595 *  0.0000    24          
   111  Mg    c      0.0000      -0.2514 *     2.2623 *  0.0000    24          
   112  Mg    c      0.7541 *     0.7541       2.0109 *  0.0000    24          
   113  O     c      0.2514 *    -0.2514       2.2623 *  0.0000    24          
   114  O     c      0.7541 *     1.2568 *     1.7595 *  0.0000    48          
   115  Mg1   c     -0.5027 *     1.0055 *     2.0109 *  0.0000    48          
   116  O     c      0.0000       0.5027 *     2.2623 *  0.0000    24          
   117  O     c      0.0000       1.7595 *     1.5082 *  0.0000    24          
   118  Mg    c      0.2514 *     0.5027 *     2.2623 *  0.0000    48          
   119  Mg    c      0.2514 *     1.5082 *     1.7595 *  0.0000    48          
   120  Mg    c      1.2568 *     1.2568       1.5082 *  0.0000    24          
   121  Mg1   c     -1.0055 *     1.5082 *     1.5082    0.0000    24          
   122  O     c      0.0000       1.2568 *     2.0109 *  0.0000    24          
   123  O     c     -0.5027 *     0.5027       2.2623 *  0.0000    24          
   124  O     c     -0.5027 *     1.7595 *     1.5082 *  0.0000    48          
   125  O     c      0.7541 *     1.0055 *     2.0109 *  0.0000    48          
   126  Mg    c      0.0000       0.7541 *     2.2623 *  0.0000    24          
   127  Mg    c     -0.2514 *     1.2568 *     2.0109 *  0.0000    48          
   128  Mg    c     -1.0055 *     1.2568 *     1.7595 *  0.0000    48          
   129  O     c      0.2514 *    -0.7541 *     2.2623 *  0.0000    48          
   130  O     c     -0.5027 *     1.2568 *     2.0109 *  0.0000    48          
   131  Mg    c     -0.5027 *     0.7541 *     2.2623 *  0.0000    48          
   132  Mg    c      0.7541 *     1.5082 *     1.7595 *  0.0000    48          
   133  Mg1   c     -1.0055 *     1.0055       2.0109 *  0.0000    24          
   134  O     c      0.0000       1.0055 *     2.2623 *  0.0000    24          
   135  O     c      1.2568 *     1.5082 *     1.5082    0.0000    24          
   136  Mg    c      0.0000       1.7595 *     1.7595    0.0000    12          
   137  Mg    c      0.2514 *     1.0055 *     2.2623 *  0.0000    48          
   138  Mg    c      0.7541 *     1.2568 *     2.0109 *  0.0000    48          
   139  O     c      0.2514 *    -1.7595 *     1.7595    0.0000    24          
   140  O     c      0.7541 *    -0.7541       2.2623 *  0.0000    24          
   141  O     c      1.2568 *    -1.2568       1.7595 *  0.0000    24          
   142  Mg1   c      0.0000      -0.0000       2.5136 *  0.0000     6          
   143  Mg1   c      0.0000       1.5082 *     2.0109 *  0.0000    24          
   144  O     c      0.0000      -0.2514 *     2.5136 *  0.0000    24          
   145  O     c      0.2514 *     1.5082 *     2.0109 *  0.0000    48          
   146  O     c      0.5027 *     1.0055 *     2.2623 *  0.0000    48          
   147  O     c     -1.0055 *     1.5082 *     1.7595 *  0.0000    48          
   148  Mg    c      0.2514 *    -0.2514       2.5136 *  0.0000    24          
   149  Mg    c     -0.5027 *     1.7595 *     1.7595    0.0000    24          
   150  Mg1   c      0.0000       0.5027 *     2.5136 *  0.0000    24          
   151  Mg1   c     -0.5027 *     1.5082 *     2.0109 *  0.0000    48          
   152  O     c      0.2514 *     0.5027 *     2.5136 *  0.0000    48          
   153  O     c     -1.0055 *     1.2568 *     2.0109 *  0.0000    48          
   154  Mg    c      0.0000       1.2568 *     2.2623 *  0.0000    24          
   155  Mg    c      0.7541 *     1.0055 *     2.2623 *  0.0000    48          
   156  O     c     -0.2514 *    -1.2568 *     2.2623 *  0.0000    48          
   157  O     c      0.7541 *    -1.7595 *     1.7595    0.0000    24          
   158  Mg1   c     -0.5027 *     0.5027       2.5136 *  0.0000    24          
   159  Mg1   c     -1.5082 *     1.5082       1.5082    0.0000     8          
   160  O     c      0.0000       0.7541 *     2.5136 *  0.0000    24          
   161  O     c      0.7541 *     1.5082 *     2.0109 *  0.0000    48          
   162  Mg    c     -0.2514 *     0.7541 *     2.5136 *  0.0000    48          
   163  Mg    c     -0.5027 *     1.2568 *     2.2623 *  0.0000    48          
   164  Mg    c      1.2568 *     1.7595 *     1.5082 *  0.0000    48          
   165  O     c      0.0000       1.7595 *     2.0109 *  0.0000    24          
   166  O     c     -0.5027 *     0.7541 *     2.5136 *  0.0000    48          
   167  O     c     -1.0055 *     1.0055       2.2623 *  0.0000    24          
   168  Mg    c     -0.2514 *     1.7595 *     2.0109 *  0.0000    48          
   169  Mg    c     -1.0055 *     1.7595 *     1.7595    0.0000    24          
   170  Mg    c      1.2568 *     1.2568       2.0109 *  0.0000    24          
   171  O     c      0.7541 *     1.2568 *     2.2623 *  0.0000    48          
   172  Mg1   c      0.0000       1.0055 *     2.5136 *  0.0000    24          
   173  Mg1   c     -1.0055 *     1.5082 *     2.0109 *  0.0000    48          
   174  O     c      0.0000       1.5082 *     2.2623 *  0.0000    24          
   175  O     c      0.2514 *     1.0055 *     2.5136 *  0.0000    48          
   176  O     c      0.5027 *     1.7595 *     2.0109 *  0.0000    48          
   177  Mg    c      0.2514 *     1.5082 *     2.2623 *  0.0000    48          
   178  Mg    c      0.7541 *     0.7541       2.5136 *  0.0000    24          
   179  Mg1   c     -0.5027 *     1.0055 *     2.5136 *  0.0000    48          
   180  O     c      0.0000      -0.0000       2.7650 *  0.0000     6          
   181  O     c      0.5027 *     1.5082 *     2.2623 *  0.0000    48          
   182  O     c     -1.5082 *     1.7595 *     1.5082    0.0000    24          
   183  Mg    c      0.0000      -0.2514 *     2.7650 *  0.0000    24          
   184  Mg    c      0.7541 *     1.7595 *     2.0109 *  0.0000    48          
   185  Mg    c     -1.0055 *     1.2568 *     2.2623 *  0.0000    48          
   186  O     c      0.2514 *    -0.2514       2.7650 *  0.0000    24          
   187  O     c      1.2568 *    -1.7595 *     1.7595    0.0000    24          
   188  O     c      0.0000       0.5027 *     2.7650 *  0.0000    24          
   189  O     c      0.0000       1.2568 *     2.5136 *  0.0000    24          
   190  O     c      0.7541 *     1.0055 *     2.5136 *  0.0000    48          
   191  O     c      1.2568 *     1.5082 *     2.0109 *  0.0000    48          
   192  Mg    c      0.2514 *     0.5027 *     2.7650 *  0.0000    48          
   193  Mg    c     -0.2514 *     1.2568 *     2.5136 *  0.0000    48          
   194  Mg    c      0.7541 *     1.5082 *     2.2623 *  0.0000    48          
   195  Mg1   c      0.0000       2.0109 *     2.0109    0.0000    12          
   196  O     c     -0.2514 *     2.0109 *     2.0109    0.0000    24          
   197  O     c      0.5027 *     1.2568 *     2.5136 *  0.0000    48          
   198  O     c      0.5027 *     0.5027       2.7650 *  0.0000    24          
   199  O     c     -1.0055 *     1.7595 *     2.0109 *  0.0000    48          
   200  Mg    c      0.0000       0.7541 *     2.7650 *  0.0000    24          
   201  Mg    c      0.0000       1.7595 *     2.2623 *  0.0000    24          
   202  O     c     -0.2514 *     0.7541 *     2.7650 *  0.0000    48          
   203  O     c     -0.2514 *    -1.7595 *     2.2623 *  0.0000    48          
   204  O     c      1.2568 *     1.2568       2.2623 *  0.0000    24          
   205  Mg1   c      0.5027 *     2.0109 *     2.0109    0.0000    24          
   206  Mg1   c     -1.0055 *     1.0055       2.5136 *  0.0000    24          
   207  O     c     -1.0055 *     1.5082 *     2.2623 *  0.0000    48          
   208  Mg    c     -0.5027 *     0.7541 *     2.7650 *  0.0000    48          
   209  Mg    c     -0.5027 *     1.7595 *     2.2623 *  0.0000    48          
   210  Mg    c      0.7541 *     1.2568 *     2.5136 *  0.0000    48          
   211  Mg    c     -1.5082 *     1.7595 *     1.7595    0.0000    24          
   212  Mg1   c      0.0000       1.5082 *     2.5136 *  0.0000    24          
   213  Mg1   c      1.5082 *     1.5082       2.0109 *  0.0000    24          
   214  O     c      0.0000       1.0055 *     2.7650 *  0.0000    24          
   215  O     c      0.2514 *     1.5082 *     2.5136 *  0.0000    48          
   216  O     c      0.7541 *     2.0109 *     2.0109    0.0000    24          
   217  Mg    c      0.2514 *     1.0055 *     2.7650 *  0.0000    48          
   218  Mg    c      1.2568 *     1.7595 *     2.0109 *  0.0000    48          
   219  O     c      0.7541 *    -0.7541       2.7650 *  0.0000    24          
   220  O     c      0.7541 *    -1.7595 *     2.2623 *  0.0000    48          
   221  Mg1   c     -0.5027 *     1.5082 *     2.5136 *  0.0000    48          
   222  O     c      0.5027 *     1.0055 *     2.7650 *  0.0000    48          
   223  O     c     -1.0055 *     1.2568 *     2.5136 *  0.0000    48          
   224  Mg    c      1.2568 *     1.5082 *     2.2623 *  0.0000    48          
   225  Mg1   c      0.0000      -0.0000       3.0164 *  0.0000     6          
   226  Mg1   c     -1.0055 *     2.0109 *     2.0109    0.0000    24          
   227  O     c      0.0000      -0.2514 *     3.0164 *  0.0000    24          
   228  O     c      0.0000       2.2623 *     2.0109 *  0.0000    24          
   229  O     c      0.7541 *     1.5082 *     2.5136 *  0.0000    48          
   230  Mg    c      0.0000       1.2568 *     2.7650 *  0.0000    24          
   231  Mg    c     -0.2514 *    -0.2514       3.0164 *  0.0000    24          
   232  Mg    c      0.2514 *     2.0109 *     2.2623 *  0.0000    48          
   233  Mg    c      0.7541 *     1.0055 *     2.7650 *  0.0000    48          
   234  Mg    c     -1.0055 *     1.7595 *     2.2623 *  0.0000    48          
   235  O     c      0.2514 *    -1.2568 *     2.7650 *  0.0000    48          
   236  O     c      1.7595 *    -1.7595       1.7595    0.0000     8          
   237  Mg1   c      0.0000       0.5027 *     3.0164 *  0.0000    24          
   238  O     c      0.0000       1.7595 *     2.5136 *  0.0000    24          
   239  O     c     -0.2514 *     0.5027 *     3.0164 *  0.0000    48          
   240  O     c     -0.5027 *     2.2623 *     2.0109 *  0.0000    48          
   241  O     c     -1.5082 *     1.7595 *     2.0109 *  0.0000    48          
   242  Mg    c     -0.2514 *     1.7595 *     2.5136 *  0.0000    48          
   243  Mg    c     -0.5027 *     1.2568 *     2.7650 *  0.0000    48          
   244  Mg    c      1.2568 *     1.2568       2.5136 *  0.0000    24          
   245  Mg1   c      0.5027 *     0.5027       3.0164 *  0.0000    24          
   246  Mg1   c     -1.0055 *     1.5082 *     2.5136 *  0.0000    48          
   247  O     c      0.0000       0.7541 *     3.0164 *  0.0000    24          
   248  O     c      0.5027 *     1.7595 *     2.5136 *  0.0000    48          
   249  O     c     -1.0055 *     1.0055       2.7650 *  0.0000    24          
   250  O     c      1.2568 *     2.0109 *     2.0109    0.0000    24          
   251  O     c     -1.5082 *     1.5082       2.2623 *  0.0000    24          
   252  Mg    c     -0.2514 *     0.7541 *     3.0164 *  0.0000    48          
   253  Mg    c      0.7541 *     2.2623 *     2.0109 *  0.0000    48          
   254  O     c      0.7541 *     1.2568 *     2.7650 *  0.0000    48          
   255  O     c      1.2568 *     1.7595 *     2.2623 *  0.0000    48          
   256  O     c      0.0000       1.5082 *     2.7650 *  0.0000    24          
   257  O     c     -0.5027 *     0.7541 *     3.0164 *  0.0000    48          
   258  Mg    c      0.2514 *     1.5082 *     2.7650 *  0.0000    48          
   259  Mg    c      0.7541 *     1.7595 *     2.5136 *  0.0000    48          
   260  Mg1   c      0.0000       1.0055 *     3.0164 *  0.0000    24          
   261  O     c     -0.2514 *     1.0055 *     3.0164 *  0.0000    48          
   262  O     c      0.5027 *     1.5082 *     2.7650 *  0.0000    48          
   263  O     c     -1.0055 *     2.0109 *     2.2623 *  0.0000    48          
   264  O     c      1.2568 *     1.5082 *     2.5136 *  0.0000    48          
   265  Mg    c      0.0000       2.2623 *     2.2623    0.0000    12          
   266  Mg    c      0.7541 *     0.7541       3.0164 *  0.0000    24          
   267  Mg    c     -1.0055 *     1.2568 *     2.7650 *  0.0000    48          
   268  Mg    c      1.7595 *     1.7595       2.0109 *  0.0000    24          
   269  O     c     -0.2514 *    -2.2623 *     2.2623    0.0000    24          
   270  Mg1   c      0.0000       2.0109 *     2.5136 *  0.0000    24          
   271  Mg1   c      0.5027 *     1.0055 *     3.0164 *  0.0000    48          
   272  Mg1   c     -1.5082 *     2.0109 *     2.0109    0.0000    24          
   273  O     c     -0.2514 *     2.0109 *     2.5136 *  0.0000    48          
   274  O     c     -1.0055 *     1.7595 *     2.5136 *  0.0000    48          
   275  Mg    c     -0.5027 *     2.2623 *     2.2623    0.0000    24          
   276  Mg    c      0.7541 *     1.5082 *     2.7650 *  0.0000    48          
   277  Mg    c     -1.5082 *     1.7595 *     2.2623 *  0.0000    48          
   278  Mg1   c      0.5027 *     2.0109 *     2.5136 *  0.0000    48          
   279  O     c      0.0000       1.2568 *     3.0164 *  0.0000    24          
   280  O     c      0.0000      -0.0000       3.2677 *  0.0000     6          
   281  O     c      0.7541 *     1.0055 *     3.0164 *  0.0000    48          
   282  Mg    c      0.0000      -0.2514 *     3.2677 *  0.0000    24          
   283  Mg    c      0.2514 *     1.2568 *     3.0164 *  0.0000    48          
   284  Mg    c      0.0000       1.7595 *     2.7650 *  0.0000    24          
   285  Mg    c      1.2568 *     2.0109 *     2.2623 *  0.0000    48          
   286  O     c     -0.2514 *    -0.2514       3.2677 *  0.0000    24          
   287  O     c      0.2514 *    -1.7595 *     2.7650 *  0.0000    48          
   288  O     c      0.7541 *    -2.2623 *     2.2623    0.0000    24          
   289  O     c      1.2568 *    -1.2568       2.7650 *  0.0000    24          
   290  Mg1   c      1.5082 *     1.5082       2.5136 *  0.0000    24          
   291  O     c      0.0000       0.5027 *     3.2677 *  0.0000    24          
   292  O     c      0.5027 *     1.2568 *     3.0164 *  0.0000    48          
   293  O     c      0.7541 *     2.0109 *     2.5136 *  0.0000    48          
   294  O     c      1.0055 *     1.5082 *     2.7650 *  0.0000    48          
   295  Mg    c      0.2514 *     0.5027 *     3.2677 *  0.0000    48          
   296  Mg    c     -0.5027 *     1.7595 *     2.7650 *  0.0000    48          
   297  Mg    c      1.2568 *     1.7595 *     2.5136 *  0.0000    48          
   298  Mg1   c     -1.0055 *     1.0055       3.0164 *  0.0000    24          
   299  O     c      0.5027 *     0.5027       3.2677 *  0.0000    24          
   300  O     c      1.7595 *     2.0109 *     2.0109    0.0000    24          
   301  Mg    c      0.0000       0.7541 *     3.2677 *  0.0000    24          
   302  Mg    c      0.7541 *     1.2568 *     3.0164 *  0.0000    48          
   303  Mg    c     -1.0055 *     2.2623 *     2.2623    0.0000    24          
   304  O     c     -0.2514 *     0.7541 *     3.2677 *  0.0000    48          
   305  O     c      0.7541 *     1.7595 *     2.7650 *  0.0000    48          
   306  O     c      1.7595 *    -1.7595       2.2623 *  0.0000    24          
   307  Mg1   c      0.0000       1.5082 *     3.0164 *  0.0000    24          
   308  Mg1   c     -1.0055 *     2.0109 *     2.5136 *  0.0000    48          
   309  O     c      0.0000       2.2623 *     2.5136 *  0.0000    24          
   310  O     c     -0.2514 *     1.5082 *     3.0164 *  0.0000    48          
   311  O     c     -1.5082 *     2.2623 *     2.0109 *  0.0000    48          
   312  Mg    c      0.2514 *     2.2623 *     2.5136 *  0.0000    48          
   313  Mg    c     -0.5027 *     0.7541 *     3.2677 *  0.0000    48          
   314  Mg    c      1.2568 *     1.5082 *     2.7650 *  0.0000    48          
   315  Mg1   c      0.5027 *     1.5082 *     3.0164 *  0.0000    48          
   316  O     c      0.0000       1.0055 *     3.2677 *  0.0000    24          
   317  O     c      0.0000       2.0109 *     2.7650 *  0.0000    24          
   318  O     c     -0.5027 *     2.2623 *     2.5136 *  0.0000    48          
   319  O     c     -1.0055 *     1.2568 *     3.0164 *  0.0000    48          
   320  O     c     -1.5082 *     1.7595 *     2.5136 *  0.0000    48          
   321  Mg    c      0.2514 *     1.0055 *     3.2677 *  0.0000    48          
   322  Mg    c      0.2514 *     2.0109 *     2.7650 *  0.0000    48          
   323  Mg    c     -1.0055 *     1.7595 *     2.7650 *  0.0000    48          
   324  O     c      0.7541 *    -0.7541       3.2677 *  0.0000    24          
   325  O     c      1.2568 *    -2.2623 *     2.2623    0.0000    24          
   326  O     c      0.5027 *     1.0055 *     3.2677 *  0.0000    48          
   327  O     c      0.5027 *     2.0109 *     2.7650 *  0.0000    48          
   328  O     c      0.7541 *     1.5082 *     3.0164 *  0.0000    48          
   329  O     c      1.2568 *     2.0109 *     2.5136 *  0.0000    48          
   330  Mg    c      0.7541 *     2.2623 *     2.5136 *  0.0000    48          
   331  Mg1   c     -2.0109 *     2.0109       2.0109    0.0000     8          
   332  O     c      0.0000       1.7595 *     3.0164 *  0.0000    24          
   333  O     c     -1.5082 *     1.5082       2.7650 *  0.0000    24          
   334  Mg    c      0.0000       1.2568 *     3.2677 *  0.0000    24          
   335  Mg    c      0.2514 *     1.7595 *     3.0164 *  0.0000    48          
   336  Mg    c      0.7541 *     1.0055 *     3.2677 *  0.0000    48          
   337  Mg    c      0.7541 *     2.0109 *     2.7650 *  0.0000    48          
   338  Mg    c      1.2568 *     1.2568       3.0164 *  0.0000    24          
   339  Mg    c      1.7595 *     2.2623 *     2.0109 *  0.0000    48          
   340  O     c      0.2514 *    -1.2568 *     3.2677 *  0.0000    48          
   341  O     c      1.2568 *    -1.7595 *     2.7650 *  0.0000    48          
   342  Mg1   c      0.0000      -0.0000       3.5191 *  0.0000     6          
   343  Mg1   c      1.0055 *     1.5082 *     3.0164 *  0.0000    48          
   344  O     c      0.0000      -0.2514 *     3.5191 *  0.0000    24          
   345  O     c     -0.5027 *     1.7595 *     3.0164 *  0.0000    48          
   346  O     c      1.0055 *     2.2623 *     2.5136 *  0.0000    48          
   347  Mg    c     -0.2514 *    -0.2514       3.5191 *  0.0000    24          
   348  Mg    c     -0.5027 *     1.2568 *     3.2677 *  0.0000    48          
   349  Mg    c     -1.5082 *     2.2623 *     2.2623    0.0000    24          
   350  Mg    c      1.7595 *     1.7595       2.5136 *  0.0000    24          
   351  Mg1   c      0.0000       0.5027 *     3.5191 *  0.0000    24          
   352  Mg1   c      0.0000       2.5136 *     2.5136    0.0000    12          
   353  Mg1   c     -1.5082 *     2.0109 *     2.5136 *  0.0000    48          
   354  O     c     -0.2514 *     0.5027 *     3.5191 *  0.0000    48          
   355  O     c     -0.2514 *     2.5136 *     2.5136    0.0000    24          
   356  O     c     -1.0055 *     1.0055       3.2677 *  0.0000    24          
   357  O     c     -1.0055 *     2.0109 *     2.7650 *  0.0000    48          
   358  Mg    c      0.0000       2.2623 *     2.7650 *  0.0000    24          
   359  Mg    c      0.7541 *     1.7595 *     3.0164 *  0.0000    48          
   360  O     c     -0.2514 *    -2.2623 *     2.7650 *  0.0000    48          
   361  O     c      0.7541 *     1.2568 *     3.2677 *  0.0000    48          
   362  Mg1   c      0.5027 *     0.5027       3.5191 *  0.0000    24          
   363  Mg1   c     -0.5027 *     2.5136 *     2.5136    0.0000    24          
   364  O     c      0.0000       0.7541 *     3.5191 *  0.0000    24          
   365  O     c      0.0000       1.5082 *     3.2677 *  0.0000    24          
   366  O     c      1.2568 *     1.5082 *     3.0164 *  0.0000    48          
   367  Mg    c     -0.2514 *     0.7541 *     3.5191 *  0.0000    48          
   368  Mg    c      0.2514 *     1.5082 *     3.2677 *  0.0000    48          
   369  Mg    c      0.5027 *     2.2623 *     2.7650 *  0.0000    48          
   370  Mg    c      1.2568 *     2.2623 *     2.5136 *  0.0000    48          
   371  Mg    c     -1.5082 *     1.7595 *     2.7650 *  0.0000    48          
   372  Mg1   c      0.0000       2.0109 *     3.0164 *  0.0000    24          
   373  O     c     -0.2514 *     2.0109 *     3.0164 *  0.0000    48          
   374  O     c      0.5027 *     0.7541 *     3.5191 *  0.0000    48          
   375  O     c      0.5027 *     1.5082 *     3.2677 *  0.0000    48          
   376  O     c      0.7541 *     2.5136 *     2.5136    0.0000    24          
   377  O     c     -1.0055 *     1.7595 *     3.0164 *  0.0000    48          
   378  O     c     -2.0109 *     2.2623 *     2.0109    0.0000    24          
   379  Mg    c     -1.0055 *     1.2568 *     3.2677 *  0.0000    48          
   380  Mg    c      1.2568 *     2.0109 *     2.7650 *  0.0000    48          
   381  O     c      0.7541 *    -2.2623 *     2.7650 *  0.0000    48          
   382  O     c      1.7595 *    -2.2623 *     2.2623    0.0000    24          
   383  Mg1   c      0.0000       1.0055 *     3.5191 *  0.0000    24          
   384  Mg1   c      0.5027 *     2.0109 *     3.0164 *  0.0000    48          
   385  O     c     -0.2514 *     1.0055 *     3.5191 *  0.0000    48          
   386  O     c      1.7595 *     2.0109 *     2.5136 *  0.0000    48          
   387  Mg    c      0.7541 *     0.7541       3.5191 *  0.0000    24          
   388  Mg    c      0.7541 *     1.5082 *     3.2677 *  0.0000    48          
   389  Mg1   c      0.5027 *     1.0055 *     3.5191 *  0.0000    48          
   390  Mg1   c      1.0055 *     2.5136 *     2.5136    0.0000    24          
   391  Mg1   c     -1.5082 *     1.5082       3.0164 *  0.0000    24          
   392  O     c      0.7541 *     2.0109 *     3.0164 *  0.0000    48          
   393  O     c     -1.5082 *     2.2623 *     2.5136 *  0.0000    48          
   394  Mg    c      0.0000       1.7595 *     3.2677 *  0.0000    24          
   395  Mg    c     -1.0055 *     2.2623 *     2.7650 *  0.0000    48          
   396  Mg    c      1.2568 *     1.7595 *     3.0164 *  0.0000    48          
   397  O     c      0.2514 *    -1.7595 *     3.2677 *  0.0000    48          
   398  O     c      1.2568 *    -1.2568       3.2677 *  0.0000    24          
   399  O     c      1.7595 *    -1.7595       2.7650 *  0.0000    24          
   400  O     c      0.0000       1.2568 *     3.5191 *  0.0000    24          
   401  O     c      0.0000       2.5136 *     2.7650 *  0.0000    24          
   402  O     c      0.7541 *     1.0055 *     3.5191 *  0.0000    48          
   403  O     c      1.0055 *     1.5082 *     3.2677 *  0.0000    48          
   404  O     c     -1.5082 *     2.0109 *     2.7650 *  0.0000    48          
   405  Mg    c      0.2514 *     1.2568 *     3.5191 *  0.0000    48          
   406  Mg    c      0.2514 *     2.5136 *     2.7650 *  0.0000    48          
   407  Mg    c     -0.5027 *     1.7595 *     3.2677 *  0.0000    48          
   408  Mg1   c     -1.0055 *     2.0109 *     3.0164 *  0.0000    48          
   409  O     c      0.0000      -0.0000       3.7704 *  0.0000     6          
   410  O     c      0.0000       2.2623 *     3.0164 *  0.0000    24          
   411  O     c     -0.5027 *     1.2568 *     3.5191 *  0.0000    48          
   412  O     c     -0.5027 *     2.5136 *     2.7650 *  0.0000    48          
   413  O     c      1.2568 *     2.5136 *     2.5136    0.0000    24          
   414  Mg    c      0.0000      -0.2514 *     3.7704 *  0.0000    24          
   415  Mg    c     -0.2514 *     2.2623 *     3.0164 *  0.0000    48          
   416  Mg    c     -2.0109 *     2.2623 *     2.2623    0.0000    24          
   417  O     c     -0.2514 *    -0.2514       3.7704 *  0.0000    24          
   418  O     c      0.7541 *     1.7595 *     3.2677 *  0.0000    48          
   419  O     c      1.2568 *    -2.2623 *     2.7650 *  0.0000    48          
   420  Mg1   c      1.0055 *     1.0055       3.5191 *  0.0000    24          
   421  Mg1   c     -2.0109 *     2.0109       2.5136 *  0.0000    24          
   422  O     c      0.0000       0.5027 *     3.7704 *  0.0000    24          
   423  O     c      0.5027 *     2.2623 *     3.0164 *  0.0000    48          
   424  O     c     -1.5082 *     1.7595 *     3.0164 *  0.0000    48          
   425  Mg    c      0.2514 *     0.5027 *     3.7704 *  0.0000    48          
   426  Mg    c      0.7541 *     1.2568 *     3.5191 *  0.0000    48          
   427  Mg    c      0.7541 *     2.5136 *     2.7650 *  0.0000    48          
   428  Mg    c      1.2568 *     1.5082 *     3.2677 *  0.0000    48          
   429  Mg    c      1.7595 *     2.2623 *     2.5136 *  0.0000    48          
   430  Mg1   c      0.0000       1.5082 *     3.5191 *  0.0000    24          
   431  O     c      0.0000       2.0109 *     3.2677 *  0.0000    24          
   432  O     c     -0.2514 *     1.5082 *     3.5191 *  0.0000    48          
   433  O     c      0.5027 *     0.5027       3.7704 *  0.0000    24          
   434  O     c      1.2568 *     2.0109 *     3.0164 *  0.0000    48          
   435  Mg    c      0.0000       0.7541 *     3.7704 *  0.0000    24          
   436  Mg    c      0.2514 *     2.0109 *     3.2677 *  0.0000    48          
   437  Mg    c      0.7541 *     2.2623 *     3.0164 *  0.0000    48          
   438  Mg    c     -1.0055 *     1.7595 *     3.2677 *  0.0000    48          
   439  Mg    c      1.7595 *     2.0109 *     2.7650 *  0.0000    48          
   440  O     c     -0.2514 *     0.7541 *     3.7704 *  0.0000    48          
   441  Mg1   c      0.5027 *     1.5082 *     3.5191 *  0.0000    48          
   442  Mg1   c      1.5082 *     2.5136 *     2.5136    0.0000    24          
   443  O     c      0.5027 *     2.0109 *     3.2677 *  0.0000    48          
   444  O     c     -1.0055 *     1.2568 *     3.5191 *  0.0000    48          
   445  O     c     -1.0055 *     2.5136 *     2.7650 *  0.0000    48          
   446  Mg    c     -0.5027 *     0.7541 *     3.7704 *  0.0000    48          
   447  Mg    c     -1.5082 *     2.2623 *     2.7650 *  0.0000    48          
   448  O     c      0.0000       1.0055 *     3.7704 *  0.0000    24          
   449  O     c      0.7541 *     1.5082 *     3.5191 *  0.0000    48          
   450  O     c     -1.0055 *     2.2623 *     3.0164 *  0.0000    48          
   451  O     c     -1.5082 *     1.5082       3.2677 *  0.0000    24          
   452  Mg    c      0.2514 *     1.0055 *     3.7704 *  0.0000    48          
   453  Mg    c      0.0000       2.7650 *     2.7650    0.0000    12          
   454  Mg    c      0.7541 *     2.0109 *     3.2677 *  0.0000    48          
   455  Mg    c      1.7595 *     1.7595       3.0164 *  0.0000    24          
   456  O     c     -0.2514 *     2.7650 *     2.7650    0.0000    24          
   457  O     c      0.7541 *     0.7541       3.7704 *  0.0000    24          
   458  O     c      1.2568 *    -1.7595 *     3.2677 *  0.0000    48          
   459  O     c      2.2623 *    -2.2623       2.2623    0.0000     8          
   460  Mg1   c      0.0000       2.5136 *     3.0164 *  0.0000    24          
   461  Mg1   c     -1.5082 *     2.0109 *     3.0164 *  0.0000    48          
   462  O     c      0.0000       1.7595 *     3.5191 *  0.0000    24          
   463  O     c     -0.2514 *     2.5136 *     3.0164 *  0.0000    48          
   464  O     c      0.5027 *     1.0055 *     3.7704 *  0.0000    48          
   465  O     c     -2.0109 *     2.2623 *     2.5136 *  0.0000    48          
   466  Mg    c     -0.2514 *     1.7595 *     3.5191 *  0.0000    48          
   467  Mg    c      0.5027 *     2.7650 *     2.7650    0.0000    24          
   468  Mg    c      1.2568 *     1.2568       3.5191 *  0.0000    24          
   469  Mg    c      1.2568 *     2.5136 *     2.7650 *  0.0000    48          
   470  Mg1   c     -0.5027 *     2.5136 *     3.0164 *  0.0000    48          
   471  Mg1   c     -1.0055 *     1.5082 *     3.5191 *  0.0000    48          
   472  O     c     -0.5027 *     1.7595 *     3.5191 *  0.0000    48          
   473  O     c     -1.0055 *     2.0109 *     3.2677 *  0.0000    48          
   474  O     c      1.7595 *     2.5136 *     2.5136    0.0000    24          
   475  O     c     -2.0109 *     2.0109       2.7650 *  0.0000    24          
   476  Mg    c      0.0000       1.2568 *     3.7704 *  0.0000    24          
   477  Mg    c      0.0000       2.2623 *     3.2677 *  0.0000    24          
   478  Mg    c      0.7541 *     1.0055 *     3.7704 *  0.0000    48          
   479  Mg    c      1.2568 *     2.2623 *     3.0164 *  0.0000    48          
   480  O     c      0.2514 *    -1.2568 *     3.7704 *  0.0000    48          
   481  O     c     -0.2514 *    -2.2623 *     3.2677 *  0.0000    48          
   482  O     c      0.7541 *     2.7650 *     2.7650    0.0000    24          
   483  O     c      1.7595 *    -2.2623 *     2.7650 *  0.0000    48          
   484  O     c      0.7541 *     2.5136 *     3.0164 *  0.0000    48          
   485  Mg    c     -0.5027 *     1.2568 *     3.7704 *  0.0000    48          
   486  Mg    c      0.5027 *     2.2623 *     3.2677 *  0.0000    48          
   487  Mg    c      0.7541 *     1.7595 *     3.5191 *  0.0000    48          
   488  Mg    c      1.5082 *     1.7595 *     3.2677 *  0.0000    48          
   489  Mg1   c      0.0000      -0.0000       4.0218 *  0.0000     6          
   490  O     c      0.0000      -0.2514 *     4.0218 *  0.0000    24          
   491  O     c      1.0055 *     1.0055       3.7704 *  0.0000    24          
   492  O     c      1.2568 *     1.5082 *     3.5191 *  0.0000    48          
   493  O     c     -1.5082 *     2.7650 *     2.5136 *  0.0000    48          
   494  O     c      1.7595 *     2.0109 *     3.0164 *  0.0000    48          
   495  Mg    c     -0.2514 *    -0.2514       4.0218 *  0.0000    24          
   496  Mg    c      1.0055 *     2.7650 *     2.7650    0.0000    24          
   497  Mg    c      1.2568 *     2.0109 *     3.2677 *  0.0000    48          
   498  O     c      0.7541 *    -1.2568 *     3.7704 *  0.0000    48          
   499  O     c      0.7541 *    -2.2623 *     3.2677 *  0.0000    48          
   500  Mg1   c      0.0000       0.5027 *     4.0218 *  0.0000    24          
   501  Mg1   c      0.0000       2.0109 *     3.5191 *  0.0000    24          
   502  Mg1   c      1.0055 *     2.5136 *     3.0164 *  0.0000    48          
   503  O     c      0.0000       1.5082 *     3.7704 *  0.0000    24          
   504  O     c     -0.2514 *     0.5027 *     4.0218 *  0.0000    48          
   505  O     c     -0.2514 *     2.0109 *     3.5191 *  0.0000    48          
   506  O     c      1.0055 *     1.7595 *     3.5191 *  0.0000    48          
   507  O     c     -1.5082 *     2.2623 *     3.0164 *  0.0000    48          
   508  Mg    c      0.2514 *     1.5082 *     3.7704 *  0.0000    48          
   509  Mg    c      2.2623 *     2.2623       2.5136 *  0.0000    24          
   510  Mg1   c     -0.5027 *     0.5027       4.0218 *  0.0000    24          
   511  Mg1   c      0.5027 *     2.0109 *     3.5191 *  0.0000    48          
   512  Mg1   c     -2.0109 *     2.5136 *     2.5136    0.0000    24          
   513  O     c      0.0000       0.7541 *     4.0218 *  0.0000    24          
   514  O     c      0.0000       3.0164 *     2.7650 *  0.0000    24          
   515  O     c      0.5027 *     1.5082 *     3.7704 *  0.0000    48          
   516  Mg    c     -0.2514 *     0.7541 *     4.0218 *  0.0000    48          
   517  Mg    c      0.2514 *     3.0164 *     2.7650 *  0.0000    48          
   518  Mg    c      1.0055 *     1.2568 *     3.7704 *  0.0000    48          
   519  Mg    c     -1.0055 *     2.2623 *     3.2677 *  0.0000    48          
   520  Mg    c     -2.0109 *     2.2623 *     2.7650 *  0.0000    48          
   521  O     c      1.2568 *     2.7650 *     2.7650    0.0000    24          
   522  O     c      1.7595 *    -1.7595       3.2677 *  0.0000    24          
   523  Mg1   c      1.5082 *     1.5082       3.5191 *  0.0000    24          
   524  O     c      0.0000       2.5136 *     3.2677 *  0.0000    24          
   525  O     c      0.5027 *     0.7541 *     4.0218 *  0.0000    48          
   526  O     c     -0.5027 *     3.0164 *     2.7650 *  0.0000    48          
   527  O     c      0.7541 *     2.0109 *     3.5191 *  0.0000    48          
   528  O     c      1.2568 *     2.5136 *     3.0164 *  0.0000    48          
   529  O     c     -1.5082 *     2.0109 *     3.2677 *  0.0000    48          
   530  Mg    c      0.2514 *     2.5136 *     3.2677 *  0.0000    48          
   531  Mg    c      0.7541 *     1.5082 *     3.7704 *  0.0000    48          
   532  Mg    c      1.2568 *     1.7595 *     3.5191 *  0.0000    48          
   533  Mg    c      1.7595 *     2.5136 *     2.7650 *  0.0000    48          
   534  Mg1   c      0.0000       1.0055 *     4.0218 *  0.0000    24          
   535  Mg1   c     -2.0109 *     2.0109       3.0164 *  0.0000    24          
   536  O     c     -0.2514 *     1.0055 *     4.0218 *  0.0000    48          
   537  O     c     -0.5027 *     2.5136 *     3.2677 *  0.0000    48          
   538  Mg    c      0.0000       1.7595 *     3.7704 *  0.0000    24          
   539  Mg    c      0.7541 *     0.7541       4.0218 *  0.0000    24          
   540  Mg    c      0.7541 *     3.0164 *     2.7650 *  0.0000    48          
   541  Mg    c      1.7595 *     2.2623 *     3.0164 *  0.0000    48          
   542  O     c     -0.2514 *    -1.7595 *     3.7704 *  0.0000    48          
   543  O     c      1.2568 *     1.2568       3.7704 *  0.0000    24          
   544  O     c      1.2568 *    -2.2623 *     3.2677 *  0.0000    48          
   545  Mg1   c     -0.5027 *     1.0055 *     4.0218 *  0.0000    48          
   546  Mg1   c     -1.0055 *     2.0109 *     3.5191 *  0.0000    48          
   547  O     c      0.0000       2.2623 *     3.5191 *  0.0000    24          
   548  O     c     -1.0055 *     1.5082 *     3.7704 *  0.0000    48          
   549  Mg    c      0.2514 *     2.2623 *     3.5191 *  0.0000    48          
   550  Mg    c     -0.5027 *     1.7595 *     3.7704 *  0.0000    48          
   551  Mg    c      0.7541 *     2.5136 *     3.2677 *  0.0000    48          
   552  Mg    c     -1.5082 *     2.7650 *     2.7650    0.0000    24          
   553  Mg1   c     -1.5082 *     2.5136 *     3.0164 *  0.0000    48          
   554  O     c      0.0000       1.2568 *     4.0218 *  0.0000    24          
   555  O     c      0.5027 *     2.2623 *     3.5191 *  0.0000    48          
   556  O     c      0.7541 *     1.0055 *     4.0218 *  0.0000    48          
   557  O     c     -1.0055 *     2.7650 *     3.0164 *  0.0000    48          
   558  O     c     -1.5082 *     1.7595 *     3.5191 *  0.0000    48          
   559  O     c      2.2623 *     2.5136 *     2.5136    0.0000    24          
   560  Mg    c     -0.2514 *     1.2568 *     4.0218 *  0.0000    48          
   561  Mg    c      1.7595 *     2.0109 *     3.2677 *  0.0000    48          
   562  O     c      0.7541 *    -1.7595 *     3.7704 *  0.0000    48          
   563  O     c      2.2623 *     2.2623       2.7650 *  0.0000    24          
   564  O     c     -0.5027 *     1.2568 *     4.0218 *  0.0000    48          
   565  O     c      1.0055 *     2.5136 *     3.2677 *  0.0000    48          
   566  O     c      1.2568 *     2.0109 *     3.5191 *  0.0000    48          
   567  O     c     -2.0109 *     2.5136 *     2.7650 *  0.0000    48          
   568  Mg    c      0.7541 *     2.2623 *     3.5191 *  0.0000    48          
   569  Mg    c      1.2568 *     1.5082 *     3.7704 *  0.0000    48          
   570  Mg    c     -1.5082 *     2.2623 *     3.2677 *  0.0000    48          
   571  Mg1   c      0.0000       3.0164 *     3.0164    0.0000    12          
   572  Mg1   c      1.0055 *     1.0055       4.0218 *  0.0000    24          
   573  O     c      0.0000      -0.0000       4.2732 *  0.0000     6          
   574  O     c      0.0000       2.0109 *     3.7704 *  0.0000    24          
   575  O     c     -0.2514 *     3.0164 *     3.0164    0.0000    24          
   576  O     c     -2.0109 *     2.2623 *     3.0164 *  0.0000    48          
   577  Mg    c      0.0000      -0.2514 *     4.2732 *  0.0000    24          
   578  Mg    c      0.2514 *     2.0109 *     3.7704 *  0.0000    48          
   579  Mg    c      0.0000       2.7650 *     3.2677 *  0.0000    24          
   580  Mg    c      0.7541 *     1.2568 *     4.0218 *  0.0000    48          
   581  Mg    c      1.0055 *     1.7595 *     3.7704 *  0.0000    48          
   582  Mg    c      1.2568 *     3.0164 *     2.7650 *  0.0000    48          
   583  O     c     -0.2514 *    -0.2514       4.2732 *  0.0000    24          
   584  O     c     -0.2514 *     2.7650 *     3.2677 *  0.0000    48          
   585  O     c      1.7595 *     2.7650 *     2.7650    0.0000    24          
   586  Mg1   c      0.0000       1.5082 *     4.0218 *  0.0000    24          
   587  Mg1   c      0.5027 *     3.0164 *     3.0164    0.0000    24          
   588  O     c      0.0000       0.5027 *     4.2732 *  0.0000    24          
   589  O     c     -0.2514 *     1.5082 *     4.0218 *  0.0000    48          
   590  O     c      0.5027 *     2.0109 *     3.7704 *  0.0000    48          
   591  O     c      1.0055 *     2.2623 *     3.5191 *  0.0000    48          
   592  O     c      1.7595 *     2.5136 *     3.0164 *  0.0000    48          
   593  Mg    c      0.2514 *     0.5027 *     4.2732 *  0.0000    48          
   594  Mg    c      0.5027 *     2.7650 *     3.2677 *  0.0000    48          
   595  Mg    c      1.2568 *     2.5136 *     3.2677 *  0.0000    48          
   596  Mg    c      1.7595 *     1.7595       3.5191 *  0.0000    24          
   597  Mg1   c      0.0000       2.5136 *     3.5191 *  0.0000    24          
   598  Mg1   c      0.5027 *     1.5082 *     4.0218 *  0.0000    48          
   599  Mg1   c     -1.5082 *     2.0109 *     3.5191 *  0.0000    48          
   600  O     c     -0.5027 *     0.5027       4.2732 *  0.0000    24          
   601  O     c     -0.2514 *     2.5136 *     3.5191 *  0.0000    48          
   602  O     c      0.7541 *     3.0164 *     3.0164    0.0000    24          
   603  O     c      1.0055 *     1.2568 *     4.0218 *  0.0000    48          
   604  O     c      1.5082 *     1.5082       3.7704 *  0.0000    24          
   605  O     c     -2.0109 *     2.0109       3.2677 *  0.0000    24          
   606  Mg    c      0.0000       0.7541 *     4.2732 *  0.0000    24          
   607  Mg    c      0.7541 *     2.0109 *     3.7704 *  0.0000    48          
   608  O     c     -0.2514 *     0.7541 *     4.2732 *  0.0000    48          
   609  O     c      0.7541 *     2.7650 *     3.2677 *  0.0000    48          
   610  O     c      1.2568 *     1.7595 *     3.7704 *  0.0000    48          
   611  O     c      1.7595 *     2.2623 *     3.2677 *  0.0000    48          
   612  Mg1   c      0.5027 *     2.5136 *     3.5191 *  0.0000    48          
   613  Mg1   c     -2.5136 *     2.5136       2.5136    0.0000     8          
   614  O     c      0.7541 *     1.5082 *     4.0218 *  0.0000    48          
   615  O     c      1.5082 *     2.7650 *     3.0164 *  0.0000    48          
   616  Mg    c      0.5027 *     0.7541 *     4.2732 *  0.0000    48          
   617  Mg    c      1.2568 *     2.2623 *     3.5191 *  0.0000    48          
   618  Mg    c      2.2623 *     2.5136 *     2.7650 *  0.0000    48          
   619  Mg1   c      1.0055 *     3.0164 *     3.0164    0.0000    24          
   620  O     c      0.0000       1.7595 *     4.0218 *  0.0000    24          
   621  O     c      0.0000       1.0055 *     4.2732 *  0.0000    24          
   622  O     c      0.7541 *     2.5136 *     3.5191 *  0.0000    48          
   623  O     c     -1.0055 *     2.0109 *     3.7704 *  0.0000    48          
   624  O     c     -1.5082 *     2.5136 *     3.2677 *  0.0000    48          
   625  Mg    c      0.2514 *     1.0055 *     4.2732 *  0.0000    48          
   626  Mg    c     -0.2514 *     1.7595 *     4.0218 *  0.0000    48          
   627  Mg    c      0.0000       2.2623 *     3.7704 *  0.0000    24          
   628  Mg    c     -1.0055 *     2.7650 *     3.2677 *  0.0000    48          
   629  Mg    c      1.2568 *     1.2568       4.0218 *  0.0000    24          
   630  Mg    c     -2.0109 *     2.7650 *     2.7650    0.0000    24          
   631  Mg    c      2.2623 *     2.2623       3.0164 *  0.0000    24          
   632  O     c     -0.2514 *    -2.2623 *     3.7704 *  0.0000    48          
   633  O     c      0.7541 *     0.7541       4.2732 *  0.0000    24          
   634  Mg1   c     -1.0055 *     1.5082 *     4.0218 *  0.0000    48          
   635  Mg1   c      2.0109 *     2.5136 *     3.0164 *  0.0000    48          
   636  O     c      0.5027 *     1.7595 *     4.0218 *  0.0000    48          
   637  O     c     -0.5027 *     1.0055 *     4.2732 *  0.0000    48          
   638  O     c      1.7595 *     2.0109 *     3.5191 *  0.0000    48          
   639  Mg    c      0.5027 *     2.2623 *     3.7704 *  0.0000    48          
   640  Mg    c     -1.5082 *     1.7595 *     3.7704 *  0.0000    48          
   641  Mg1   c      1.0055 *     2.5136 *     3.5191 *  0.0000    48          
   642  O     c      0.0000       3.2677 *     3.0164 *  0.0000    24          
   643  O     c      1.2568 *     3.0164 *     3.0164    0.0000    24          
   644  O     c     -1.5082 *     2.2623 *     3.5191 *  0.0000    48          
   645  Mg    c      0.0000       1.2568 *     4.2732 *  0.0000    24          
   646  Mg    c      0.2514 *     3.0164 *     3.2677 *  0.0000    48          
   647  Mg    c      0.7541 *     1.7595 *     4.0218 *  0.0000    48          
   648  Mg    c      0.7541 *     1.0055 *     4.2732 *  0.0000    48          
   649  Mg    c      1.2568 *     2.0109 *     3.7704 *  0.0000    48          
   650  Mg    c      1.7595 *     2.7650 *     3.0164 *  0.0000    48          
   651  Mg    c     -2.0109 *     2.2623 *     3.2677 *  0.0000    48          
   652  O     c     -0.2514 *    -1.2568 *     4.2732 *  0.0000    48          
   653  O     c      0.7541 *    -2.2623 *     3.7704 *  0.0000    48          
   654  O     c      1.2568 *     2.7650 *     3.2677 *  0.0000    48          
   655  O     c      0.0000       2.7650 *     3.5191 *  0.0000    24          
   656  O     c      0.5027 *     3.2677 *     3.0164 *  0.0000    48          
   657  O     c      1.2568 *     1.5082 *     4.0218 *  0.0000    48          
   658  Mg    c      0.2514 *     3.5191 *     2.7650 *  0.0000    48          
   659  Mg    c      0.5027 *     1.2568 *     4.2732 *  0.0000    48          
   660  Mg    c      1.7595 *     2.5136 *     3.2677 *  0.0000    48          
   661  Mg1   c      0.0000       2.0109 *     4.0218 *  0.0000    24          
   662  O     c     -0.2514 *     2.0109 *     4.0218 *  0.0000    48          
   663  O     c     -0.5027 *     2.7650 *     3.5191 *  0.0000    48          
   664  O     c      1.0055 *     1.7595 *     4.0218 *  0.0000    48          
   665  O     c      1.0055 *     1.0055       4.2732 *  0.0000    24          
   666  O     c      1.2568 *     2.5136 *     3.5191 *  0.0000    48          
   667  O     c     -2.5136 *     2.7650 *     2.5136    0.0000    24          
   668  Mg    c      0.7541 *     3.0164 *     3.2677 *  0.0000    48          
   669  Mg    c      1.0055 *     2.2623 *     3.7704 *  0.0000    48          
   670  O     c      0.7541 *    -1.2568 *     4.2732 *  0.0000    48          
   671  O     c      1.7595 *     1.7595       3.7704 *  0.0000    24          
   672  O     c      2.2623 *     2.7650 *     2.7650    0.0000    24          
   673  Mg1   c      0.0000      -0.0000       4.5245 *  0.0000     6          
   674  Mg1   c      0.5027 *     2.0109 *     4.0218 *  0.0000    48          
   675  Mg1   c     -1.5082 *     3.0164 *     3.0164    0.0000    24          
   676  Mg1   c     -2.0109 *     2.0109       3.5191 *  0.0000    24          
   677  O     c      0.0000      -0.2514 *     4.5245 *  0.0000    24          
   678  O     c      0.0000       1.5082 *     4.2732 *  0.0000    24          
   679  O     c      0.0000       2.5136 *     3.7704 *  0.0000    24          
   680  O     c     -1.5082 *     2.0109 *     3.7704 *  0.0000    48          
   681  O     c      2.2623 *     2.5136 *     3.0164 *  0.0000    48          
   682  Mg    c     -0.2514 *    -0.2514       4.5245 *  0.0000    24          
   683  Mg    c      0.2514 *     1.5082 *     4.2732 *  0.0000    48          
   684  Mg    c      0.2514 *     2.5136 *     3.7704 *  0.0000    48          
   685  Mg    c      0.7541 *     3.5191 *     2.7650 *  0.0000    48          
   686  Mg    c      1.5082 *     2.7650 *     3.2677 *  0.0000    48          
   687  Mg    c      1.7595 *     2.2623 *     3.5191 *  0.0000    48          
   688  Mg1   c      0.0000       0.5027 *     4.5245 *  0.0000    24          
   689  Mg1   c      1.5082 *     1.5082       4.0218 *  0.0000    24          
   690  O     c     -0.2514 *     0.5027 *     4.5245 *  0.0000    48          
   691  O     c      0.5027 *     1.5082 *     4.2732 *  0.0000    48          
   692  O     c      0.5027 *     2.5136 *     3.7704 *  0.0000    48          
   693  O     c      0.7541 *     2.0109 *     4.0218 *  0.0000    48          
   694  O     c     -1.0055 *     3.2677 *     3.0164 *  0.0000    48          
   695  O     c     -2.0109 *     2.7650 *     3.0164 *  0.0000    48          
   696  Mg    c     -1.0055 *     1.2568 *     4.2732 *  0.0000    48          
   697  Mg    c      1.2568 *     1.7595 *     4.0218 *  0.0000    48          
   698  O     c      1.2568 *    -2.2623 *     3.7704 *  0.0000    48          
   699  O     c      2.2623 *    -2.2623       3.2677 *  0.0000    24          
   700  Mg1   c     -0.5027 *     0.5027       4.5245 *  0.0000    24          
   701  Mg1   c     -1.5082 *     2.5136 *     3.5191 *  0.0000    48          
   702  O     c      0.0000       0.7541 *     4.5245 *  0.0000    24          
   703  O     c      1.0055 *     2.7650 *     3.5191 *  0.0000    48          
   704  O     c     -2.0109 *     3.2677 *     2.5136 *  0.0000    48          
   705  Mg    c     -0.2514 *     0.7541 *     4.5245 *  0.0000    48          
   706  Mg    c      0.7541 *     1.5082 *     4.2732 *  0.0000    48          
   707  Mg    c      0.7541 *     2.5136 *     3.7704 *  0.0000    48          
   708  Mg1   c     -1.0055 *     2.0109 *     4.0218 *  0.0000    48          
   709  O     c      0.0000       2.2623 *     4.0218 *  0.0000    24          
   710  O     c      0.5027 *     0.7541 *     4.5245 *  0.0000    48          
   711  O     c      1.7595 *     3.0164 *     3.0164    0.0000    24          
   712  Mg    c      0.2514 *     2.2623 *     4.0218 *  0.0000    48          
   713  Mg    c      0.0000       1.7595 *     4.2732 *  0.0000    24          
   714  Mg    c      0.0000       3.2677 *     3.2677    0.0000    12          
   715  Mg    c      1.2568 *     3.0164 *     3.2677 *  0.0000    48          
   716  Mg    c      1.7595 *     2.0109 *     3.7704 *  0.0000    48          
   717  O     c     -0.2514 *    -1.7595 *     4.2732 *  0.0000    48          
   718  O     c     -0.2514 *     3.2677 *     3.2677    0.0000    24          
   719  O     c      1.2568 *     1.2568       4.2732 *  0.0000    24          
   720  O     c      1.7595 *     2.7650 *     3.2677 *  0.0000    48          
   721  Mg1   c      0.0000       1.0055 *     4.5245 *  0.0000    24          
   722  Mg1   c      0.0000       3.0164 *     3.5191 *  0.0000    24          
   723  O     c     -0.2514 *     1.0055 *     4.5245 *  0.0000    48          
   724  O     c     -0.2514 *     3.0164 *     3.5191 *  0.0000    48          
   725  O     c      0.5027 *     2.2623 *     4.0218 *  0.0000    48          
   726  O     c      1.0055 *     2.5136 *     3.7704 *  0.0000    48          
   727  O     c     -1.0055 *     1.5082 *     4.2732 *  0.0000    48          
   728  O     c     -1.5082 *     1.7595 *     4.0218 *  0.0000    48          
   729  O     c     -2.0109 *     2.2623 *     3.5191 *  0.0000    48          
   730  Mg    c      0.5027 *     1.7595 *     4.2732 *  0.0000    48          
[...]
          19                35 y            35 z         1.00000
          20                36 y            36 z         1.00000
          21                37 x            37 y        -1.00000
          22                39 x            39 y         1.00000
          23                42 y            42 z         1.00000
          24                44 x            44 y        -1.00000
          25                49 y            49 z         1.00000
          26                51 x            51 y        -1.00000
          27                52 x            52 y        -1.00000
          28                56 x            56 y        -1.00000
          29                56 x            56 z        -1.00000
          30                60 y            60 z         1.00000
          31                62 x            62 y        -1.00000
          32                63 y            63 z        -1.00000
          33                68 y            68 z         1.00000
          34                69 x            69 y         1.00000
          35                71 x            71 y        -1.00000
          36                72 x            72 y        -1.00000
          37                75 y            75 z        -1.00000
          38                84 x            84 y        -1.00000
          39                86 y            86 z         1.00000
          40                87 x            87 y        -1.00000
          41                89 x            89 y        -1.00000
          42                93 y            93 z         1.00000
          43                94 x            94 y        -1.00000
          44                96 y            96 z         1.00000
          45               101 x           101 y        -1.00000
          46               101 x           101 z         1.00000
          47               102 y           102 z         1.00000
          48               109 y           109 z         1.00000
          49               110 x           110 y        -1.00000
          50               112 x           112 y         1.00000
          51               113 x           113 y        -1.00000
          52               120 x           120 y         1.00000
          53               121 y           121 z         1.00000
          54               123 x           123 y        -1.00000
          55               133 x           133 y        -1.00000
          56               135 y           135 z         1.00000
          57               136 y           136 z         1.00000
          58               139 y           139 z        -1.00000
          59               140 x           140 y        -1.00000
          60               141 x           141 y        -1.00000
          61               148 x           148 y        -1.00000
          62               149 y           149 z         1.00000
          63               157 y           157 z        -1.00000
          64               158 x           158 y        -1.00000
          65               159 x           159 y        -1.00000
          66               159 x           159 z        -1.00000
          67               167 x           167 y        -1.00000
          68               169 y           169 z         1.00000
          69               170 x           170 y         1.00000
          70               178 x           178 y         1.00000
          71               182 x           182 z        -1.00000
          72               186 x           186 y        -1.00000
          73               187 y           187 z        -1.00000
          74               195 y           195 z         1.00000
          75               196 y           196 z         1.00000
          76               198 x           198 y         1.00000
          77               204 x           204 y         1.00000
          78               205 y           205 z         1.00000
          79               206 x           206 y        -1.00000
          80               211 y           211 z         1.00000
          81               213 x           213 y         1.00000
          82               216 y           216 z         1.00000
          83               219 x           219 y        -1.00000
          84               226 y           226 z         1.00000
          85               231 x           231 y         1.00000
          86               236 x           236 y        -1.00000
          87               236 x           236 z         1.00000
          88               244 x           244 y         1.00000
          89               245 x           245 y         1.00000
          90               249 x           249 y        -1.00000
          91               250 y           250 z         1.00000
          92               251 x           251 y        -1.00000
          93               265 y           265 z         1.00000
          94               266 x           266 y         1.00000
          95               268 x           268 y         1.00000
          96               269 y           269 z        -1.00000
          97               272 y           272 z         1.00000
          98               275 y           275 z         1.00000
          99               286 x           286 y         1.00000
         100               288 y           288 z        -1.00000
         101               289 x           289 y        -1.00000
         102               290 x           290 y         1.00000
         103               298 x           298 y        -1.00000
         104               299 x           299 y         1.00000
         105               300 y           300 z         1.00000
         106               303 y           303 z         1.00000
         107               306 x           306 y        -1.00000
         108               324 x           324 y        -1.00000
         109               325 y           325 z        -1.00000
         110               331 x           331 y        -1.00000
         111               331 x           331 z        -1.00000
         112               333 x           333 y        -1.00000
         113               338 x           338 y         1.00000
         114               347 x           347 y         1.00000
         115               349 y           349 z         1.00000
         116               350 x           350 y         1.00000
         117               352 y           352 z         1.00000
         118               355 y           355 z         1.00000
         119               356 x           356 y        -1.00000
         120               362 x           362 y         1.00000
         121               363 y           363 z         1.00000
         122               376 y           376 z         1.00000
         123               378 x           378 z        -1.00000
         124               382 y           382 z        -1.00000
         125               387 x           387 y         1.00000
         126               390 y           390 z         1.00000
         127               391 x           391 y        -1.00000
         128               398 x           398 y        -1.00000
         129               399 x           399 y        -1.00000
         130               413 y           413 z         1.00000
         131               416 y           416 z         1.00000
         132               417 x           417 y         1.00000
         133               420 x           420 y         1.00000
         134               421 x           421 y        -1.00000
         135               433 x           433 y         1.00000
         136               442 y           442 z         1.00000
         137               451 x           451 y        -1.00000
         138               453 y           453 z         1.00000
         139               455 x           455 y         1.00000
         140               456 y           456 z         1.00000
         141               457 x           457 y         1.00000
         142               459 x           459 y        -1.00000
         143               459 x           459 z         1.00000
         144               467 y           467 z         1.00000
         145               468 x           468 y         1.00000
         146               474 y           474 z         1.00000
         147               475 x           475 y        -1.00000
         148               482 y           482 z         1.00000
         149               491 x           491 y         1.00000
         150               495 x           495 y         1.00000
         151               496 y           496 z         1.00000
         152               509 x           509 y         1.00000
         153               510 x           510 y        -1.00000
         154               512 y           512 z         1.00000
         155               521 y           521 z         1.00000
         156               522 x           522 y        -1.00000
         157               523 x           523 y         1.00000
         158               535 x           535 y        -1.00000
         159               539 x           539 y         1.00000
         160               543 x           543 y         1.00000
         161               552 y           552 z         1.00000
         162               559 y           559 z         1.00000
         163               563 x           563 y         1.00000
         164               571 y           571 z         1.00000
         165               572 x           572 y         1.00000
         166               575 y           575 z         1.00000
         167               583 x           583 y         1.00000
         168               585 y           585 z         1.00000
         169               587 y           587 z         1.00000
         170               596 x           596 y         1.00000
         171               600 x           600 y        -1.00000
         172               602 y           602 z         1.00000
         173               604 x           604 y         1.00000
         174               605 x           605 y        -1.00000
         175               613 x           613 y        -1.00000
         176               613 x           613 z        -1.00000
         177               619 y           619 z         1.00000
         178               629 x           629 y         1.00000
         179               630 y           630 z         1.00000
         180               631 x           631 y         1.00000
         181               633 x           633 y         1.00000
         182               643 y           643 z         1.00000
         183               665 x           665 y         1.00000
         184               667 x           667 z        -1.00000
         185               671 x           671 y         1.00000
         186               672 y           672 z         1.00000
         187               675 y           675 z         1.00000
         188               676 x           676 y        -1.00000
         189               682 x           682 y         1.00000
         190               689 x           689 y         1.00000
         191               699 x           699 y        -1.00000
         192               700 x           700 y        -1.00000
         193               711 y           711 z         1.00000
         194               714 y           714 z         1.00000
         195               718 y           718 z         1.00000
         196               719 x           719 y         1.00000
         197               731 x           731 y         1.00000
         198               732 y           732 z         1.00000
         199               735 y           735 z         1.00000
         200               738 x           738 y        -1.00000
         201               746 y           746 z         1.00000
         202               756 y           756 z         1.00000
         203               761 x           761 y        -1.00000
         204               764 y           764 z         1.00000
         205               765 x           765 y         1.00000
         206               770 x           770 y         1.00000
         207               776 x           776 y         1.00000
         208               782 x           782 y        -1.00000
         209               789 x           789 y         1.00000
         210               791 y           791 z         1.00000
         211               792 x           792 y         1.00000
         212               792 x           792 z         1.00000
         213               804 x           804 y        -1.00000
         214               809 y           809 z         1.00000
         215               810 x           810 y        -1.00000
         216               827 x           827 y         1.00000
         217               829 y           829 z         1.00000
         218               842 x           842 y         1.00000
         219               851 x           851 y        -1.00000
         220               859 x           859 z         1.00000
         221               861 x           861 y        -1.00000
         222               862 y           862 z         1.00000
         223               863 x           863 y        -1.00000
         224               865 y           865 z         1.00000
         225               876 y           876 z         1.00000
         226               879 y           879 z         1.00000
         227               881 x           881 y         1.00000
         228               890 y           890 z         1.00000
         229               891 x           891 y        -1.00000
         230               892 x           892 y        -1.00000
         231               905 y           905 z         1.00000
         232               908 x           908 y         1.00000
         233               912 y           912 z         1.00000
         234               927 x           927 y        -1.00000
         235               928 y           928 z         1.00000
         236               933 y           933 z         1.00000
         237               941 x           941 y         1.00000
         238               942 x           942 y         1.00000
         239               956 y           956 z         1.00000
         240               957 x           957 y        -1.00000
         241               959 x           959 y         1.00000
         242               961 x           961 y         1.00000
         243               966 y           966 z         1.00000
         244               974 x           974 y         1.00000
         245               985 x           985 y        -1.00000
         246               994 y           994 z         1.00000
         247              1002 x          1002 y         1.00000
         248              1003 x          1003 y        -1.00000
         249              1003 x          1003 z        -1.00000
         250              1006 x          1006 y        -1.00000
         251              1024 y          1024 z         1.00000
         252              1025 x          1025 z         1.00000
         253              1034 y          1034 z         1.00000
         254              1039 x          1039 y         1.00000
         255              1054 x          1054 y        -1.00000
         256              1061 y          1061 z         1.00000
         257              1062 x          1062 y         1.00000
         258              1067 y          1067 z         1.00000
         259              1069 x          1069 y        -1.00000
         260              1072 x          1072 y        -1.00000
         261              1077 y          1077 z         1.00000
         262              1081 y          1081 z         1.00000
         263              1082 x          1082 y        -1.00000
         264              1085 x          1085 z        -1.00000
         265              1094 x          1094 y         1.00000
         266              1095 y          1095 z         1.00000
         267              1096 x          1096 y        -1.00000
         268              1098 y          1098 z         1.00000
         269              1118 y          1118 z         1.00000
         270              1122 x          1122 y         1.00000
         271              1136 x          1136 y         1.00000
         272              1138 x          1138 y         1.00000
         273              1140 y          1140 z         1.00000
         274              1147 y          1147 z         1.00000
         275              1167 y          1167 z         1.00000
         276              1172 x          1172 y        -1.00000
         277              1179 x          1179 y         1.00000
         278              1184 y          1184 z         1.00000
         279              1185 x          1185 y         1.00000
         280              1193 x          1193 y        -1.00000
         281              1195 x          1195 y        -1.00000
         282              1202 x          1202 y         1.00000
         283              1205 x          1205 y        -1.00000
         284              1206 y          1206 z         1.00000
         285              1225 x          1225 y         1.00000
         286              1226 x          1226 y         1.00000
         287              1228 y          1228 z         1.00000
         288              1237 x          1237 y         1.00000
         289              1256 x          1256 y         1.00000
         290              1256 x          1256 z         1.00000
         291              1269 y          1269 z         1.00000
         292              1271 y          1271 z         1.00000
         293              1272 x          1272 y         1.00000
         294              1274 y          1274 z         1.00000
         295              1275 x          1275 y        -1.00000
         296              1279 y          1279 z         1.00000
         297              1284 y          1284 z         1.00000
         298              1285 x          1285 y         1.00000
         299              1300 y          1300 z         1.00000
         300              1311 x          1311 y         1.00000
         301              1314 x          1314 y         1.00000
         302              1323 y          1323 z         1.00000
         303              1324 x          1324 y        -1.00000
         304              1337 x          1337 y         1.00000
         305              1341 y          1341 z         1.00000
         306              1342 x          1342 y         1.00000
         307              1351 x          1351 y         1.00000
         308              1353 x          1353 z         1.00000
         309              1357 y          1357 z         1.00000
         310              1359 x          1359 y         1.00000
         311              1361 y          1361 z         1.00000
         312              1368 x          1368 y         1.00000
         313              1380 x          1380 y        -1.00000
         314              1396 x          1396 y         1.00000
         315              1400 y          1400 z         1.00000
         316              1412 y          1412 z         1.00000
         317              1425 x          1425 y         1.00000
         318              1440 x          1440 y         1.00000
         319              1442 y          1442 z         1.00000
         320              1443 x          1443 y        -1.00000
         321              1444 y          1444 z         1.00000
         322              1446 x          1446 y         1.00000
         323              1452 x          1452 y         1.00000
         324              1466 x          1466 y         1.00000
         325              1474 x          1474 y        -1.00000
