********************************************************************************
*                       GENERAL UTILITY LATTICE PROGRAM                        *
*                                 Julian Gale                                  *
*                       Curtin Institute for Computation                       *
*                    School of Molecular and Life Sciences                     *
*                    Curtin University, Western Australia                      *
********************************************************************************
* Version = 5.2.0 * Last modified =  18th May 2020                             *
********************************************************************************
*  optimise     - perform optimisation run                                     *
*  conp         - constant pressure calculation                                *
*  noelectro    - do not include electrostatic terms despite charges present   *
*  property     - calculate properties for final geometry                      *
*  compare      - compare initial and final structures                         *
********************************************************************************
* Fitting and optimization of Vanadium pentoxide                               *
********************************************************************************


  Job Started  at 23:29.19  6th August     2020                               

  Number of CPUs =     1


  Total number of configurations input =      1

********************************************************************************
*  Input for Configuration =   1                                               *
********************************************************************************

  Formula = V4O10                                                       

  Number of irreducible atoms/shells =       4


  Total number atoms/shells =      14

  Dimensionality = 3               :  Bulk   


  Symmetry :

  Crystal family                   :  Orthorhombic
  Crystal class  (Groth - 1921)    :  Orthorhombic Pyramidal               

  Space group (noncentrosymmetric) :  P M N 21        

  Patterson group                  :  P m m m  

  Cartesian lattice vectors (Angstroms) :

       11.519000    0.000000    0.000000
        0.000000    4.373000    0.000000
        0.000000    0.000000    3.564000

  Cell parameters (Angstroms/Degrees):

  a =      11.5190    alpha =  90.0000
  b =       4.3730    beta  =  90.0000
  c =       3.5640    gamma =  90.0000

  Initial cell volume =         179.527900 Angs**3

  Temperature of configuration =   0.00     K 

  Pressure of configuration =         0.000 GPa 

  Fractional coordinates of asymmetric unit :

--------------------------------------------------------------------------------
   No.  Atomic       x           y          z         Charge      Occupancy
        Label      (Frac)      (Frac)     (Frac)        (e)         (Frac)  
--------------------------------------------------------------------------------
      1 V     c    0.012900 *  0.024011 *  0.000000     5.00000    1.000000    
      2 O1    c    0.012935 *  0.104734 *  0.000000 *  -2.00000    1.000000    
      3 O2    c    0.015626 *  0.000000 *  0.140292 *  -2.00000    1.000000    
      4 O3    c    0.000000    0.000000 *  0.000000 *  -2.00000    1.000000    
--------------------------------------------------------------------------------



********************************************************************************
*  General input information                                                   *
********************************************************************************

  Species output for all configurations : 

--------------------------------------------------------------------------------
  Species    Type    Atomic    Atomic    Charge       Radii (Angs)     Library
                     Number     Mass       (e)     Cova   Ionic  VDW   Symbol
--------------------------------------------------------------------------------
    V        Core       23      50.94   5.000000   1.330  0.000  1.990          
    O1       Core        8      16.00  -2.000000   0.730  0.000  1.360          
    O2       Core        8      16.00  -2.000000   0.730  0.000  1.360          
    O3       Core        8      16.00  -2.000000   0.730  0.000  1.360          
--------------------------------------------------------------------------------


  Lattice summation method               =    Ewald          (3-D)
                                         =    Parry          (2-D)
                                         =    Saunders et al (1-D)
  Accuracy factor for lattice sums       =   12.000


  Analytic derivatives to be used

  Time limit = Infinity

  Maximum range for interatomic potentials =    100000.000000 Angstroms

  General interatomic potentials :

--------------------------------------------------------------------------------
Atom  Types   Potential      Parameter       Value         Units   Cutoffs(Ang)
  1     2                                                            Min /  Max 
--------------------------------------------------------------------------------
O    c V    c Buckingham    Buckingham A     3000.0000    eV        1.990  3.000
                            Buckingham rho  0.36415000    Ang       
                            Buckingham C     0.0000000    eV*Ang^6  
--------------------------------------------------------------------------------
O    c O    c Buckingham    Buckingham A     22764.300    eV        0.000 10.000
                            Buckingham rho  0.14900000    Ang       
                            Buckingham C     23.000000    eV*Ang^6  
--------------------------------------------------------------------------------

********************************************************************************
*  Output for configuration   1                                                *
********************************************************************************


  Components of energy : 

--------------------------------------------------------------------------------
  Interatomic potentials     =      -81788.10199331 eV    
  Monopole - monopole (real) =           0.00000000 eV    
  Monopole - monopole (recip)=           0.00000000 eV    
  Monopole - monopole (total)=           0.00000000 eV    
--------------------------------------------------------------------------------
  Total lattice energy       =      -81788.10199331 eV    
--------------------------------------------------------------------------------
  Total lattice energy       =        -7891301.5967 kJ/(mole unit cells)
--------------------------------------------------------------------------------


  Number of variables =       13

  Maximum number of calculations  =          1000
  Maximum Hessian update interval =            10
  Maximum step size               =   1.000000000
  Maximum parameter tolerance     =   0.000010000
  Maximum function  tolerance     =   0.000010000
  Maximum gradient  tolerance     =   0.001000000
  Maximum gradient  component     =   0.010000000

  Symmetry constrained optimisation

  Symmetry used for second derivatives

  Cell parameters to be optimised using strains

  Newton-Raphson optimiser to be used

  BFGS hessian update to be used

  Lower half triangular hessian to be used

  Start of bulk optimisation :

  Cycle:      0 Energy:    -81788.101993  Gnorm:2362935.383090  CPU:    0.000


!!!!!!!!!!!!!!!!!!!!!!!!!!!!!!!!!!!!!!!!!!!!!!!!!!!!!!!!!!!!!!!!!!!!!!!!!!!!!!!!
!! WARNING : ill conditioned Hessian - using diagonal elements only
!!!!!!!!!!!!!!!!!!!!!!!!!!!!!!!!!!!!!!!!!!!!!!!!!!!!!!!!!!!!!!!!!!!!!!!!!!!!!!!!

  ** Hessian calculated **
  Cycle:      1 Energy:*****************  Gnorm:**************  CPU:    0.875
  ** Hessian calculated **


!!!!!!!!!!!!!!!!!!!!!!!!!!!!!!!!!!!!!!!!!!!!!!!!!!!!!!!!!!!!!!!!!!!!!!!!!!!!!!!!
!! ERROR : Cell parameter has fallen below allowed limit
!!!!!!!!!!!!!!!!!!!!!!!!!!!!!!!!!!!!!!!!!!!!!!!!!!!!!!!!!!!!!!!!!!!!!!!!!!!!!!!!

  Cycle:      2 Energy:*****************  Gnorm:**************  CPU:    1.266
  ** Hessian calculated **


!!!!!!!!!!!!!!!!!!!!!!!!!!!!!!!!!!!!!!!!!!!!!!!!!!!!!!!!!!!!!!!!!!!!!!!!!!!!!!!!
!! ERROR : Cell parameter has fallen below allowed limit
!!!!!!!!!!!!!!!!!!!!!!!!!!!!!!!!!!!!!!!!!!!!!!!!!!!!!!!!!!!!!!!!!!!!!!!!!!!!!!!!

  Cycle:      3 Energy:*****************  Gnorm:**************  CPU:    1.719
  ** Hessian calculated **


!!!!!!!!!!!!!!!!!!!!!!!!!!!!!!!!!!!!!!!!!!!!!!!!!!!!!!!!!!!!!!!!!!!!!!!!!!!!!!!!
!! ERROR : Cell parameter has fallen below allowed limit
!!!!!!!!!!!!!!!!!!!!!!!!!!!!!!!!!!!!!!!!!!!!!!!!!!!!!!!!!!!!!!!!!!!!!!!!!!!!!!!!



!!!!!!!!!!!!!!!!!!!!!!!!!!!!!!!!!!!!!!!!!!!!!!!!!!!!!!!!!!!!!!!!!!!!!!!!!!!!!!!!
!! ERROR : Cell parameter has fallen below allowed limit
!!!!!!!!!!!!!!!!!!!!!!!!!!!!!!!!!!!!!!!!!!!!!!!!!!!!!!!!!!!!!!!!!!!!!!!!!!!!!!!!



!!!!!!!!!!!!!!!!!!!!!!!!!!!!!!!!!!!!!!!!!!!!!!!!!!!!!!!!!!!!!!!!!!!!!!!!!!!!!!!!
!! ERROR : Cell parameter has fallen below allowed limit
!!!!!!!!!!!!!!!!!!!!!!!!!!!!!!!!!!!!!!!!!!!!!!!!!!!!!!!!!!!!!!!!!!!!!!!!!!!!!!!!



!!!!!!!!!!!!!!!!!!!!!!!!!!!!!!!!!!!!!!!!!!!!!!!!!!!!!!!!!!!!!!!!!!!!!!!!!!!!!!!!
!! ERROR : Cell parameter has fallen below allowed limit
!!!!!!!!!!!!!!!!!!!!!!!!!!!!!!!!!!!!!!!!!!!!!!!!!!!!!!!!!!!!!!!!!!!!!!!!!!!!!!!!

  Cycle:      4 Energy:*****************  Gnorm:**************  CPU:    2.203
  ** Hessian calculated **


!!!!!!!!!!!!!!!!!!!!!!!!!!!!!!!!!!!!!!!!!!!!!!!!!!!!!!!!!!!!!!!!!!!!!!!!!!!!!!!!
!! ERROR : Cell parameter has fallen below allowed limit
!!!!!!!!!!!!!!!!!!!!!!!!!!!!!!!!!!!!!!!!!!!!!!!!!!!!!!!!!!!!!!!!!!!!!!!!!!!!!!!!



!!!!!!!!!!!!!!!!!!!!!!!!!!!!!!!!!!!!!!!!!!!!!!!!!!!!!!!!!!!!!!!!!!!!!!!!!!!!!!!!
!! ERROR : Cell parameter has fallen below allowed limit
!!!!!!!!!!!!!!!!!!!!!!!!!!!!!!!!!!!!!!!!!!!!!!!!!!!!!!!!!!!!!!!!!!!!!!!!!!!!!!!!



!!!!!!!!!!!!!!!!!!!!!!!!!!!!!!!!!!!!!!!!!!!!!!!!!!!!!!!!!!!!!!!!!!!!!!!!!!!!!!!!
!! ERROR : Cell parameter has fallen below allowed limit
!!!!!!!!!!!!!!!!!!!!!!!!!!!!!!!!!!!!!!!!!!!!!!!!!!!!!!!!!!!!!!!!!!!!!!!!!!!!!!!!



!!!!!!!!!!!!!!!!!!!!!!!!!!!!!!!!!!!!!!!!!!!!!!!!!!!!!!!!!!!!!!!!!!!!!!!!!!!!!!!!
!! ERROR : Cell parameter has fallen below allowed limit
!!!!!!!!!!!!!!!!!!!!!!!!!!!!!!!!!!!!!!!!!!!!!!!!!!!!!!!!!!!!!!!!!!!!!!!!!!!!!!!!

  Cycle:      5 Energy:*****************  Gnorm:**************  CPU:    2.703
  ** Hessian calculated **


!!!!!!!!!!!!!!!!!!!!!!!!!!!!!!!!!!!!!!!!!!!!!!!!!!!!!!!!!!!!!!!!!!!!!!!!!!!!!!!!
!! ERROR : Cell parameter has fallen below allowed limit
!!!!!!!!!!!!!!!!!!!!!!!!!!!!!!!!!!!!!!!!!!!!!!!!!!!!!!!!!!!!!!!!!!!!!!!!!!!!!!!!



!!!!!!!!!!!!!!!!!!!!!!!!!!!!!!!!!!!!!!!!!!!!!!!!!!!!!!!!!!!!!!!!!!!!!!!!!!!!!!!!
!! ERROR : Cell parameter has fallen below allowed limit
!!!!!!!!!!!!!!!!!!!!!!!!!!!!!!!!!!!!!!!!!!!!!!!!!!!!!!!!!!!!!!!!!!!!!!!!!!!!!!!!



!!!!!!!!!!!!!!!!!!!!!!!!!!!!!!!!!!!!!!!!!!!!!!!!!!!!!!!!!!!!!!!!!!!!!!!!!!!!!!!!
!! ERROR : Cell parameter has fallen below allowed limit
!!!!!!!!!!!!!!!!!!!!!!!!!!!!!!!!!!!!!!!!!!!!!!!!!!!!!!!!!!!!!!!!!!!!!!!!!!!!!!!!



!!!!!!!!!!!!!!!!!!!!!!!!!!!!!!!!!!!!!!!!!!!!!!!!!!!!!!!!!!!!!!!!!!!!!!!!!!!!!!!!
!! ERROR : Cell parameter has fallen below allowed limit
!!!!!!!!!!!!!!!!!!!!!!!!!!!!!!!!!!!!!!!!!!!!!!!!!!!!!!!!!!!!!!!!!!!!!!!!!!!!!!!!

  Cycle:      6 Energy:*****************  Gnorm:**************  CPU:    3.203
  ** Hessian calculated **


!!!!!!!!!!!!!!!!!!!!!!!!!!!!!!!!!!!!!!!!!!!!!!!!!!!!!!!!!!!!!!!!!!!!!!!!!!!!!!!!
!! ERROR : Cell parameter has fallen below allowed limit
!!!!!!!!!!!!!!!!!!!!!!!!!!!!!!!!!!!!!!!!!!!!!!!!!!!!!!!!!!!!!!!!!!!!!!!!!!!!!!!!



!!!!!!!!!!!!!!!!!!!!!!!!!!!!!!!!!!!!!!!!!!!!!!!!!!!!!!!!!!!!!!!!!!!!!!!!!!!!!!!!
!! ERROR : Cell parameter has fallen below allowed limit
!!!!!!!!!!!!!!!!!!!!!!!!!!!!!!!!!!!!!!!!!!!!!!!!!!!!!!!!!!!!!!!!!!!!!!!!!!!!!!!!



!!!!!!!!!!!!!!!!!!!!!!!!!!!!!!!!!!!!!!!!!!!!!!!!!!!!!!!!!!!!!!!!!!!!!!!!!!!!!!!!
!! ERROR : Cell parameter has fallen below allowed limit
!!!!!!!!!!!!!!!!!!!!!!!!!!!!!!!!!!!!!!!!!!!!!!!!!!!!!!!!!!!!!!!!!!!!!!!!!!!!!!!!



!!!!!!!!!!!!!!!!!!!!!!!!!!!!!!!!!!!!!!!!!!!!!!!!!!!!!!!!!!!!!!!!!!!!!!!!!!!!!!!!
!! ERROR : Cell parameter has fallen below allowed limit
!!!!!!!!!!!!!!!!!!!!!!!!!!!!!!!!!!!!!!!!!!!!!!!!!!!!!!!!!!!!!!!!!!!!!!!!!!!!!!!!



  **** Conditions for a minimum have not been satisfied. However ****
  **** no lower point can be found - treat results with caution  ****
  **** unless gradient norm is small (less than 0.1)             ****


  Final energy = **************** eV
  Final Gnorm  = ****************

  Components of energy : 

--------------------------------------------------------------------------------
  Interatomic potentials     = ******************** eV    
  Monopole - monopole (real) =           0.00000000 eV    
  Monopole - monopole (recip)=           0.00000000 eV    
  Monopole - monopole (total)=           0.00000000 eV    
--------------------------------------------------------------------------------
  Total lattice energy       = ******************** eV    
--------------------------------------------------------------------------------
  Total lattice energy       = ******************** kJ/(mole unit cells)
--------------------------------------------------------------------------------

  Final asymmetric unit coordinates :

--------------------------------------------------------------------------------
   No.  Atomic        x           y           z         Radius
        Label       (Frac)      (Frac)      (Frac)       (Angs) 
--------------------------------------------------------------------------------
     1  V     c     0.013614    0.025729    0.000000    0.000000
     2  O1    c     0.002566    0.022135    0.981948    0.000000
     3  O2    c     0.003393    0.949083    0.037971    0.000000
     4  O3    c     0.000000    0.077622    0.146031    0.000000
--------------------------------------------------------------------------------

  Final Cartesian lattice vectors (Angstroms) :

        0.873673    0.000000    0.000000
        0.000000    0.501764    0.000000
        0.000000    0.000000    0.624505


  Final cell parameters and derivatives :

--------------------------------------------------------------------------------
       a            0.873673 Angstrom     dE/de1(xx) ************ eV/strain
       b            0.501764 Angstrom     dE/de2(yy) ************ eV/strain
       c            0.624505 Angstrom     dE/de3(zz) ************ eV/strain
       alpha       90.000000 Degrees      dE/de4(yz)     0.000000 eV/strain
       beta        90.000000 Degrees      dE/de5(xz)     0.000000 eV/strain
       gamma       90.000000 Degrees      dE/de6(xy)     0.000000 eV/strain
--------------------------------------------------------------------------------

  Primitive cell volume =             0.273769 Angs**3

  Density of cell =   2206.409526 g/cm**3

  Non-primitive cell volume =             0.273769 Angs**3


  Final internal derivatives :

--------------------------------------------------------------------------------
   No.  Atomic          a             b             c           Radius
        Label          (eV)          (eV)          (eV)        (eV/Angs)
--------------------------------------------------------------------------------
      1 V     c     578.292379    176.844782      0.000000      0.000000
      2 O1    c ******************************************      0.000000
      3 O2    c ******************************************      0.000000
      4 O3    c       0.000000****************************      0.000000
--------------------------------------------------------------------------------
  Maximum abs   ******************************************      0.000000
--------------------------------------------------------------------------------

  Comparison of initial and final structures : 

--------------------------------------------------------------------------------
  Parameter   Initial value   Final value   Difference    Units      Percent
--------------------------------------------------------------------------------
    Volume       179.527900      0.273769  -179.254131    Angs**3    -99.85
    a             11.519000      0.873673   -10.645327    Angstroms  -92.42
    b              4.373000      0.501764    -3.871236    Angstroms  -88.53
    c              3.564000      0.624505    -2.939495    Angstroms  -82.48
    alpha         90.000000     90.000000     0.000000    Degrees      0.00
    beta          90.000000     90.000000     0.000000    Degrees      0.00
    gamma         90.000000     90.000000     0.000000    Degrees      0.00
      1 x          0.012900      0.013614     0.000714    Fractional   5.53
      1 y          0.024011      0.025729     0.001718    Fractional   7.16
      1 z          0.000000      0.000000     0.000000    Fractional   0.00
      2 x          0.012935      0.002566     0.010369    Fractional  80.16
      2 y          0.104734      0.022135     0.082599    Fractional  78.87
      2 z          0.000000      0.981948     0.981948    Fractional   0.00
      3 x          0.015626      0.003393     0.012234    Fractional  78.29
      3 y          0.000000      0.949083     0.949083    Fractional   0.00
      3 z          0.140292      0.037971     0.102320    Fractional  72.93
      4 x          0.000000      0.000000     0.000000    Fractional   0.00
      4 y          0.000000      0.077622     0.077622    Fractional   0.00
      4 z          0.000000      0.146031     0.146031    Fractional   0.00
--------------------------------------------------------------------------------



  Elastic Constant Matrix: (Units=GPa)

-------------------------------------------------------------------------------
  Indices      1         2         3         4         5         6    
-------------------------------------------------------------------------------
       1  ************************************************************
       2  ************************************************************
       3  ************************************************************
       4  ************************************************************
       5  ************************************************************
       6  ************************************************************
-------------------------------------------------------------------------------


  Elastic Compliance Matrix: (Units=1/GPa)

-------------------------------------------------------------------------------
  Indices      1         2         3         4         5         6    
-------------------------------------------------------------------------------
       1   -0.000000  0.000000  0.000000 -0.000000 -0.000000  0.000000
       2    0.000000 -0.000000 -0.000000 -0.000000  0.000000  0.000000
       3    0.000000 -0.000000 -0.000000  0.000000  0.000000 -0.000000
       4    0.000000 -0.000000  0.000000 -0.000000 -0.000000 -0.000000
       5   -0.000000  0.000000  0.000000 -0.000000 -0.000000 -0.000000
       6    0.000000  0.000000  0.000000 -0.000000  0.000000 -0.000000
-------------------------------------------------------------------------------

  Mechanical properties :

-------------------------------------------------------------------------------
  Convention :                    Reuss         Voigt         Hill
-------------------------------------------------------------------------------
  Bulk  Modulus (GPa)     =       0.00000 ************* *************
  Shear Modulus (GPa)     =       0.00000 ************* *************
-------------------------------------------------------------------------------
  Velocity S-wave (km/s)  =       0.00000 ************* *************
  Velocity P-wave (km/s)  =       0.00000 ************* *************
-------------------------------------------------------------------------------
-------------------------------------------------------------------------------
  Stress axis :                     x             y             z
-------------------------------------------------------------------------------
  Youngs Moduli (GPa)     =       0.00000       0.00000       0.00000
-------------------------------------------------------------------------------
  Poissons Ratio (x)      =                    -0.00000      -0.00000
  Poissons Ratio (y)      =      -0.00000                     0.00000
  Poissons Ratio (z)      =      -0.00000       0.00000
-------------------------------------------------------------------------------


  Piezoelectric Strain Matrix: (Units=C/m**2)

-------------------------------------------------------------------------------
  Indices      1         2         3         4         5         6    
-------------------------------------------------------------------------------
       x     0.64869   0.00000   0.00000  -0.00000-174.21315   0.86725
       y     0.08110  -0.00624   0.01316  39.41182   0.31774   4.16734
       z  -341.05694-100.93848-258.64716  -1.48729  -0.35338  -0.34482
-------------------------------------------------------------------------------


  Piezoelectric Stress Matrix: (Units=10**-11 C/N)

-------------------------------------------------------------------------------
  Indices      1         2         3         4         5         6    
-------------------------------------------------------------------------------
       x    -0.00000  -0.00000  -0.00000   0.00000   0.00000  -0.00000
       y    -0.00000   0.00000  -0.00000  -0.00000  -0.00000  -0.00000
       z     0.00000   0.00000   0.00000   0.00000  -0.00000  -0.00000
-------------------------------------------------------------------------------


  Static dielectric constant tensor : 

-------------------------------------------------------------------------------
              x         y         z
-------------------------------------------------------------------------------
       x     4.68397  -0.00000  -0.00000
       y    -0.00000   4.42324  -0.00000
       z    -0.00000  -0.00000   4.70768
--------------------------------------------------------------------------------

  Static refractive indices : 

-------------------------------------------------------------------------------
    1 =    2.10315      2 =    2.16425      3 =    2.16972
-------------------------------------------------------------------------------


  Time to end of optimisation =       4.3750 seconds


  Peak dynamic memory used =      14.61 MB 


  Timing analysis for GULP :

--------------------------------------------------------------------------------
  Task / Subroutine                                          Time (Seconds)
--------------------------------------------------------------------------------
  Calculation of real space energy and derivatives                0.6719
  Calculation of real space energy using symmetry                 3.7031
--------------------------------------------------------------------------------
  Total CPU time                                                  4.3750
--------------------------------------------------------------------------------


  Job Finished at 23:29.23  6th August     2020                               

