********************************************************************************
*                       GENERAL UTILITY LATTICE PROGRAM                        *
*                                 Julian Gale                                  *
*                       Curtin Institute for Computation                       *
*                    School of Molecular and Life Sciences                     *
*                    Curtin University, Western Australia                      *
********************************************************************************
* Version = 5.2.0 * Last modified =  18th May 2020                             *
********************************************************************************
*  optimise     - perform optimisation run                                     *
*  conp         - constant pressure calculation                                *
*  noelectro    - do not include electrostatic terms despite charges present   *
*  property     - calculate properties for final geometry                      *
*  compare      - compare initial and final structures                         *
********************************************************************************
* Fitting and optimization of Ceria                                            *
********************************************************************************


  Job Started  at 20:01.23 16th July       2020                               

  Number of CPUs =     1


  Total number of configurations input =      1


!!!!!!!!!!!!!!!!!!!!!!!!!!!!!!!!!!!!!!!!!!!!!!!!!!!!!!!!!!!!!!!!!!!!!!!!!!!!!!!!
!! WARNING : The irreducible atom 4    is equivalent to atom 4
!!!!!!!!!!!!!!!!!!!!!!!!!!!!!!!!!!!!!!!!!!!!!!!!!!!!!!!!!!!!!!!!!!!!!!!!!!!!!!!!


********************************************************************************
*  Input for Configuration =   1                                               *
********************************************************************************

  Formula = Ce0.9Cr0.1O2                                                

  Number of irreducible atoms/shells =       4


  Total number atoms/shells =       4

  Dimensionality = 3               :  Bulk   


  Symmetry :

  Crystal family                   :  Cubic       
  Crystal class  (Groth - 1921)    :  Cubic Hexakisoctahedral              

  Space group (centrosymmetric)    :  F M 3 M         

  Patterson group                  :  F m -3 m 

  Cartesian lattice vectors (Angstroms) :

        0.000000    2.500000    2.500000
        2.500000    0.000000    2.500000
        2.500000    2.500000    0.000000

  Primitive cell parameters :            Full cell parameters :

  a =   3.5355    alpha =  60.0000       a =   5.0000    alpha =  90.0000
  b =   3.5355    beta  =  60.0000       b =   5.0000    beta  =  90.0000
  c =   3.5355    gamma =  60.0000       c =   5.0000    gamma =  90.0000

  Initial volumes (Angstroms**3):

  Primitive cell =          31.250000    Full cell =         125.000000

  Temperature of configuration =   0.00     K 

  Pressure of configuration =         0.000 GPa 

  Fractional coordinates of asymmetric unit :

--------------------------------------------------------------------------------
   No.  Atomic       x           y          z         Charge      Occupancy
        Label      (Frac)      (Frac)     (Frac)        (e)         (Frac)  
--------------------------------------------------------------------------------
      1 Ce    c    0.000000    0.000000    0.000000     2.11240    0.900000    
      2 Cr    c    0.000000    0.000000    0.000000     2.04500    0.100000    
      3 O1    c    0.250000    0.250000    0.250000    -1.05283    1.000000    
      4 O2    c    0.750000    0.750000    0.750000    -1.05283    1.000000    
--------------------------------------------------------------------------------


  Constraints : 

--------------------------------------------------------------------------------
  Constraint no.      Unconstrained     Constrained    Coefficient    Offset
                         Variable         Variable
--------------------------------------------------------------------------------
           1              Strain 1        Strain 2       1.00000      0.0000
           2              Strain 1        Strain 3       1.00000      0.0000
--------------------------------------------------------------------------------


********************************************************************************
*  General input information                                                   *
********************************************************************************

  Species output for all configurations : 

--------------------------------------------------------------------------------
  Species    Type    Atomic    Atomic    Charge       Radii (Angs)     Library
                     Number     Mass       (e)     Cova   Ionic  VDW   Symbol
--------------------------------------------------------------------------------
    Ce       Core       58     140.12   2.112400   1.830  0.000  2.730          
    Cr       Core       24      52.00   2.045000   1.350  0.000  2.010          
    O1       Core        8      16.00  -1.052830   0.730  0.000  1.360          
    O2       Core        8      16.00  -1.052830   0.730  0.000  1.360          
--------------------------------------------------------------------------------


  Lattice summation method               =    Ewald          (3-D)
                                         =    Parry          (2-D)
                                         =    Saunders et al (1-D)
  Accuracy factor for lattice sums       =   12.000


  Analytic derivatives to be used

  Time limit = Infinity

  Maximum range for interatomic potentials =    100000.000000 Angstroms

  General interatomic potentials :

--------------------------------------------------------------------------------
Atom  Types   Potential      Parameter       Value         Units   Cutoffs(Ang)
  1     2                                                            Min /  Max 
--------------------------------------------------------------------------------
O    c Ce   c Morse         Morse  De        1.4841000    eV        0.000  6.000
                            Morse  a0        2.2573000    Ang^-1    
                            Morse  r0        2.1987000    Ang       
--------------------------------------------------------------------------------
O    c Cr   c Morse         Morse  De        1.7734000    eV        0.000  6.000
                            Morse  a0        1.9881000    Ang^-1    
                            Morse  r0        1.8389000    Ang       
--------------------------------------------------------------------------------
Ce   c Ce   c Qerfc         Coulomb erfc a   2.5986000    Ang       0.000 10.000
--------------------------------------------------------------------------------
O    c O    c Qerfc         Coulomb erfc a   1.0366000    Ang       0.000 10.000
--------------------------------------------------------------------------------
Cr   c Cr   c Qerfc         Coulomb erfc a   2.3085000    Ang       0.000 10.000
--------------------------------------------------------------------------------

  Potentials with energy / gradient boundary corrections : 

--------------------------------------------------------------------------------
    Potential       Atom1   Atom2    Type of correction
--------------------------------------------------------------------------------
    Morse           O     c Ce    c  Energy
    Morse           O     c Cr    c  Energy
    Qerfc           Ce    c Ce    c  Energy
    Qerfc           O     c O     c  Energy
    Qerfc           Cr    c Cr    c  Energy
--------------------------------------------------------------------------------

********************************************************************************
*  Output for configuration   1                                                *
********************************************************************************



!!!!!!!!!!!!!!!!!!!!!!!!!!!!!!!!!!!!!!!!!!!!!!!!!!!!!!!!!!!!!!!!!!!!!!!!!!!!!!!!
!! WARNING : The irreducible atom 4    is equivalent to atom 4
!!!!!!!!!!!!!!!!!!!!!!!!!!!!!!!!!!!!!!!!!!!!!!!!!!!!!!!!!!!!!!!!!!!!!!!!!!!!!!!!


  Components of energy : 

--------------------------------------------------------------------------------
  Interatomic potentials     =          -7.44811035 eV    
  Monopole - monopole (real) =           0.00000000 eV    
  Monopole - monopole (recip)=           0.00000000 eV    
  Monopole - monopole (total)=           0.00000000 eV    
--------------------------------------------------------------------------------
  Total lattice energy : 
    Primitive unit cell      =          -7.44811035 eV    
    Non-primitive unit cell  =         -29.79244140 eV    
--------------------------------------------------------------------------------
  Total lattice energy (in kJmol-1): 
    Primitive unit cell      =            -718.6288 kJ/(mole unit cells)
    Non-primitive unit cell  =           -2874.5152 kJ/(mole unit cells)
--------------------------------------------------------------------------------


  Number of variables =        1

  Maximum number of calculations  =          1000
  Maximum Hessian update interval =            10
  Maximum step size               =   1.000000000
  Maximum parameter tolerance     =   0.000010000
  Maximum function  tolerance     =   0.000010000
  Maximum gradient  tolerance     =   0.001000000
  Maximum gradient  component     =   0.010000000

  Symmetry constrained optimisation

  Symmetry used for second derivatives

  Cell parameters to be optimised using strains

  Newton-Raphson optimiser to be used

  BFGS hessian update to be used

  Lower half triangular hessian to be used

  Start of bulk optimisation :

  Cycle:      0 Energy:        -7.448110  Gnorm:     27.018946  CPU:    0.000
  ** Hessian calculated **
  Cycle:      1 Energy:        -8.056749  Gnorm:      1.611122  CPU:    0.016
  Cycle:      2 Energy:        -8.059872  Gnorm:      0.001915  CPU:    0.016


  **** Optimisation achieved ****


  Final energy =      -8.05987191 eV
  Final Gnorm  =       0.00000002

  Components of energy : 

--------------------------------------------------------------------------------
  Interatomic potentials     =          -8.05987191 eV    
  Monopole - monopole (real) =           0.00000000 eV    
  Monopole - monopole (recip)=           0.00000000 eV    
  Monopole - monopole (total)=           0.00000000 eV    
--------------------------------------------------------------------------------
  Total lattice energy : 
    Primitive unit cell      =          -8.05987191 eV    
    Non-primitive unit cell  =         -32.23948764 eV    
--------------------------------------------------------------------------------
  Total lattice energy (in kJmol-1): 
    Primitive unit cell      =            -777.6544 kJ/(mole unit cells)
    Non-primitive unit cell  =           -3110.6177 kJ/(mole unit cells)
--------------------------------------------------------------------------------

  Final asymmetric unit coordinates :

--------------------------------------------------------------------------------
   No.  Atomic        x           y           z         Radius
        Label       (Frac)      (Frac)      (Frac)       (Angs) 
--------------------------------------------------------------------------------
     1  Ce    c     0.000000    0.000000    0.000000    0.000000
     2  Cr    c     0.000000    0.000000    0.000000    0.000000
     3  O1    c     0.250000    0.250000    0.250000    0.000000
     4  O2    c     0.750000    0.750000    0.750000    0.000000
--------------------------------------------------------------------------------

  Final Cartesian lattice vectors (Angstroms) :

        0.000000    2.627746    2.627746
        2.627746    0.000000    2.627746
        2.627746    2.627746    0.000000


  Final cell parameters and derivatives :

--------------------------------------------------------------------------------
       a            3.716194 Angstrom     dE/de1(xx)     0.000000 eV/strain
       b            3.716194 Angstrom     dE/de2(yy)     0.000000 eV/strain
       c            3.716194 Angstrom     dE/de3(zz)     0.000000 eV/strain
       alpha       60.000000 Degrees      dE/de4(yz)     0.000000 eV/strain
       beta        60.000000 Degrees      dE/de5(xz)     0.000000 eV/strain
       gamma       60.000000 Degrees      dE/de6(xy)     0.000000 eV/strain
--------------------------------------------------------------------------------

  Primitive cell volume =            36.289438 Angs**3

  Density of cell =      7.472798 g/cm**3

  Non-primitive lattice parameters :

  a    =     5.255492  b   =     5.255492  c    =     5.255492
  alpha=    90.000000  beta=    90.000000  gamma=    90.000000

  Non-primitive cell volume =           145.157751 Angs**3


  Final internal derivatives :

--------------------------------------------------------------------------------
   No.  Atomic          a             b             c           Radius
        Label          (eV)          (eV)          (eV)        (eV/Angs)
--------------------------------------------------------------------------------
      1 Ce    c       0.000000      0.000000      0.000000      0.000000
      2 Cr    c       0.000000      0.000000      0.000000      0.000000
      3 O1    c       0.000000      0.000000      0.000000      0.000000
      4 O2    c       0.000000      0.000000      0.000000      0.000000
--------------------------------------------------------------------------------
  Maximum abs         0.000000      0.000000      0.000000      0.000000
--------------------------------------------------------------------------------

  Comparison of initial and final structures : 

--------------------------------------------------------------------------------
  Parameter   Initial value   Final value   Difference    Units      Percent
--------------------------------------------------------------------------------
    Volume       125.000000    145.157751    20.157751    Angs**3     16.13
    a              5.000000      5.255492     0.255492    Angstroms    5.11
    b              5.000000      5.255492     0.255492    Angstroms    5.11
    c              5.000000      5.255492     0.255492    Angstroms    5.11
    alpha         90.000000     90.000000     0.000000    Degrees      0.00
    beta          90.000000     90.000000     0.000000    Degrees      0.00
    gamma         90.000000     90.000000     0.000000    Degrees      0.00
      1 x          0.000000      0.000000     0.000000    Fractional   0.00
      1 y          0.000000      0.000000     0.000000    Fractional   0.00
      1 z          0.000000      0.000000     0.000000    Fractional   0.00
      2 x          0.000000      0.000000     0.000000    Fractional   0.00
      2 y          0.000000      0.000000     0.000000    Fractional   0.00
      2 z          0.000000      0.000000     0.000000    Fractional   0.00
      3 x          0.250000      0.250000     0.000000    Fractional   0.00
      3 y          0.250000      0.250000     0.000000    Fractional   0.00
      3 z          0.250000      0.250000     0.000000    Fractional   0.00
      4 x          0.750000      0.750000     0.000000    Fractional   0.00
      4 y          0.750000      0.750000     0.000000    Fractional   0.00
      4 z          0.750000      0.750000     0.000000    Fractional   0.00
--------------------------------------------------------------------------------



  Elastic Constant Matrix: (Units=GPa)

-------------------------------------------------------------------------------
  Indices      1         2         3         4         5         6    
-------------------------------------------------------------------------------
       1    219.1424  186.6884  186.6884   -0.0000   -0.0000   -0.0000
       2    186.6884  219.1424  186.6884    0.0000    0.0000   -0.0000
       3    186.6884  186.6884  219.1424    0.0000   -0.0000    0.0000
       4     -0.0000    0.0000    0.0000   49.5975    0.0000    0.0000
       5     -0.0000    0.0000   -0.0000    0.0000   49.5975   -0.0000
       6     -0.0000   -0.0000    0.0000    0.0000   -0.0000   49.5975
-------------------------------------------------------------------------------


  Elastic Compliance Matrix: (Units=1/GPa)

-------------------------------------------------------------------------------
  Indices      1         2         3         4         5         6    
-------------------------------------------------------------------------------
       1    0.021104 -0.009708 -0.009708  0.000000  0.000000  0.000000
       2   -0.009708  0.021104 -0.009708 -0.000000 -0.000000  0.000000
       3   -0.009708 -0.009708  0.021104 -0.000000  0.000000 -0.000000
       4    0.000000 -0.000000 -0.000000  0.020162 -0.000000 -0.000000
       5    0.000000 -0.000000  0.000000 -0.000000  0.020162  0.000000
       6    0.000000  0.000000 -0.000000 -0.000000  0.000000  0.020162
-------------------------------------------------------------------------------

  Mechanical properties :

-------------------------------------------------------------------------------
  Convention :                    Reuss         Voigt         Hill
-------------------------------------------------------------------------------
  Bulk  Modulus (GPa)     =     197.50638     197.50638     197.50638
  Shear Modulus (GPa)     =      27.21262      36.24931      31.73097
-------------------------------------------------------------------------------
  Velocity S-wave (km/s)  =       1.90829       2.20246       2.06063
  Velocity P-wave (km/s)  =       5.59334       5.73566       5.66495
-------------------------------------------------------------------------------
  Compressibility (1/GPa) =    0.00506313
-------------------------------------------------------------------------------
  Stress axis :                     x             y             z
-------------------------------------------------------------------------------
  Youngs Moduli (GPa)     =      47.38334      47.38334      47.38334
-------------------------------------------------------------------------------
  Poissons Ratio (x)      =                     0.46002       0.46002
  Poissons Ratio (y)      =       0.46002                     0.46002
  Poissons Ratio (z)      =       0.46002       0.46002
-------------------------------------------------------------------------------


  Piezoelectric Strain Matrix: (Units=C/m**2)

-------------------------------------------------------------------------------
  Indices      1         2         3         4         5         6    
-------------------------------------------------------------------------------
       x     0.00000   0.00000   0.00000  -0.00000  -0.00000  -0.00000
       y    -0.00000  -0.00000  -0.00000  -0.00000  -0.00000   0.00000
       z    -0.00000  -0.00000  -0.00000  -0.00000   0.00000  -0.00000
-------------------------------------------------------------------------------


  Piezoelectric Stress Matrix: (Units=10**-11 C/N)

-------------------------------------------------------------------------------
  Indices      1         2         3         4         5         6    
-------------------------------------------------------------------------------
       x     0.00000  -0.00000   0.00000  -0.00000  -0.00000  -0.00000
       y    -0.00000   0.00000  -0.00000  -0.00000  -0.00000   0.00000
       z    -0.00000   0.00000   0.00000  -0.00000   0.00000  -0.00000
-------------------------------------------------------------------------------


  Static dielectric constant tensor : 

-------------------------------------------------------------------------------
              x         y         z
-------------------------------------------------------------------------------
       x     2.00159   0.00000  -0.00000
       y     0.00000   2.00159   0.00000
       z    -0.00000   0.00000   2.00159
--------------------------------------------------------------------------------

  Static refractive indices : 

-------------------------------------------------------------------------------
    1 =    1.41477      2 =    1.41477      3 =    1.41477
-------------------------------------------------------------------------------


  Time to end of optimisation =       0.0156 seconds


  Peak dynamic memory used =       1.81 MB 


  Timing analysis for GULP :

--------------------------------------------------------------------------------
  Task / Subroutine                                          Time (Seconds)
--------------------------------------------------------------------------------
  Calculation of real space energy using symmetry                 0.0156
--------------------------------------------------------------------------------
  Total CPU time                                                  0.0156
--------------------------------------------------------------------------------



  **** GULP has completed with   2 warnings - beware! ****

  Job Finished at 20:01.23 16th July       2020                               

